18
Energy:  -235.8226505700
C    0.15145749  -1.46516537   0.21573816
H    0.16325017  -1.54141727   1.31405846
H    0.26291754  -2.48673748  -0.17142040
C    1.33599275  -0.58931136  -0.24230125
H    1.39122589  -0.60369264  -1.34184911
H    2.28209771  -1.00826285   0.12543125
C    1.17659768   0.86854791   0.23642414
H    1.23217576   0.89504424   1.33571297
H    2.00733207   1.48307243  -0.13516756
C   -0.17204882   1.46566724  -0.21596782
H   -0.18172912   1.54275544  -1.31423834
H   -0.28389750   2.48697763   0.17176105
C   -1.35783887   0.59021374   0.23986398
H   -1.41668742   0.60717986   1.33914561
H   -2.30270527   1.00845031  -0.13191320
C   -1.19817669  -0.86899246  -0.23511267
H   -1.25624936  -0.89895434  -1.33416621
H   -2.02797236  -1.48255321   0.14027533
18
Energy:  -235.8226460900
C    0.15146480  -1.46516608   0.21575306
H    0.16326946  -1.54142773   1.31406878
H    0.26292082  -2.48672450  -0.17141547
C    1.33599618  -0.58931768  -0.24229712
H    1.39118747  -0.60367569  -1.34184387
H    2.28212163  -1.00826649   0.12538437
C    1.17660482   0.86853692   0.23644602
H    1.23222840   0.89505884   1.33574299
H    2.00731598   1.48307109  -0.13520394
C   -0.17205628   1.46564070  -0.21594199
H   -0.18172131   1.54267857  -1.31419318
H   -0.28387339   2.48698506   0.17170129
C   -1.35786651   0.59021959   0.23988170
H   -1.41677305   0.60721544   1.33917486
H   -2.30271418   1.00846326  -0.13191936
C   -1.19817145  -0.86897503  -0.23509716
H   -1.25622198  -0.89890923  -1.33416080
H   -2.02796974  -1.48258519   0.14019419
18
Energy:  -235.8226313600
C    0.15446912  -1.46479698   0.21645877
H    0.17272010  -1.53914676   1.31482531
H    0.26476287  -2.48687651  -0.16958691
C    1.33517876  -0.58767132  -0.24814651
H    1.37949584  -0.59452892  -1.34832866
H    2.28491540  -1.00854875   0.10753858
C    1.17679968   0.86631822   0.24142876
H    1.22608880   0.88313434   1.34131538
H    2.00998939   1.48338720  -0.12020022
C   -0.16908994   1.46635224  -0.21481443
H   -0.17250280   1.54681517  -1.31287360
H   -0.28202441   2.48658169   0.17533805
C   -1.35882777   0.59196676   0.23354659
H   -1.42989233   0.61705841   1.33183245
H   -2.29953450   1.00795227  -0.15141815
C   -1.19811001  -0.87132138  -0.22968376
H   -1.26364728  -0.91190919  -1.32787144
H   -2.02504924  -1.48194466   0.15691415
18
Energy:  -235.8225594000
C    0.15746676  -1.46462102   0.21690716
H    0.18231213  -1.53781964   1.31518659
H    0.26662286  -2.48699822  -0.16872905
C    1.33439799  -0.58602435  -0.25381539
H    1.36861344  -0.58572771  -1.35448872
H    2.28745922  -1.00866487   0.09060039
C    1.17706227   0.86414685   0.24616929
H    1.22054016   0.87166403   1.34644912
H    2.01251659   1.48351545  -0.10600104
C   -0.16615110   1.46723143  -0.21349342
H   -0.16325023   1.55221372  -1.31117949
H   -0.28022604   2.48612844   0.18011457
C   -1.35984578   0.59371700   0.22685286
H   -1.44379236   0.62736995   1.32391449
H   -2.29594808   1.00717703  -0.17205489
C   -1.19818061  -0.87379872  -0.22392506
H   -1.27197496  -0.92563812  -1.32107656
H   -2.02188059  -1.48104944   0.17484350
18
Energy:  -235.8224833900
C    0.16049888  -1.46456725   0.21710864
H    0.19193249  -1.53739493   1.31528055
H    0.26847437  -2.48700364  -0.16876737
C    1.33369655  -0.58443635  -0.25922958
H    1.35838912  -0.57722962  -1.36018071
H    2.28979282  -1.00862455   0.07447326
C    1.17737253   0.86205825   0.25070734
H    1.21563976   0.86073066   1.35126305
H    2.01490858   1.48347058  -0.09265560
C   -0.16322565   1.46827008  -0.21192648
H   -0.15417631   1.55817701  -1.30913862
H   -0.27839894   2.48553775   0.18545634
C   -1.36097640   0.59557527   0.22002979
H   -1.45839384   0.63793593   1.31554177
H   -2.29214361   1.00627326  -0.19318671
C   -1.19829260  -0.87625477  -0.21804738
H   -1.28081390  -0.93975312  -1.31377800
H   -2.01854218  -1.47994273   0.19332406
18
Energy:  -235.8223545200
C    0.16345683  -1.46469447   0.21717447
H    0.20153900  -1.53777124   1.31506899
H    0.27024813  -2.48694812  -0.16952260
C    1.33299424  -0.58287936  -0.26439151
H    1.34882113  -0.56914408  -1.36553737
H    2.29188140  -1.00848339   0.05923516
C    1.17773337   0.86003876   0.25501654
H    1.21132542   0.85039053   1.35573205
H    2.01713185   1.48330874  -0.08022164
C   -0.16038920   1.46942149  -0.21016644
H   -0.14531270   1.56487758  -1.30682809
H   -0.27669106   2.48494028   0.19155746
C   -1.36204993   0.59732487   0.21302983
H   -1.47342091   0.64864894   1.30673413
H   -2.28795847   1.00513404  -0.21483815
C   -1.19845014  -0.87873422  -0.21191912
H   -1.29004422  -0.95402260  -1.30616388
H   -2.01507307  -1.47858594   0.21231453
18
Energy:  -235.8221941000
C    0.16639656  -1.46492896   0.21705115
H    0.21111196  -1.53887446   1.31462546
H    0.27196800  -2.48684118  -0.17099449
C    1.33234867  -0.58136423  -0.26932172
H    1.33983660  -0.56135891  -1.37049679
H    2.29378577  -1.00821434   0.04474509
C    1.17812242   0.85809279   0.25911826
H    1.20744105   0.84054761   1.35989767
H    2.01925171   1.48301740  -0.06848605
C   -0.15760072   1.47066250  -0.20831697
H   -0.13659684   1.57211692  -1.30424062
H   -0.27504160   2.48419984   0.19812769
C   -1.36324341   0.59914609   0.20601099
H   -1.48869411   0.65950322   1.29755917
H   -2.28357378   1.00378815  -0.23685285
C   -1.19870103  -0.88122984  -0.20572451
H   -1.29964739  -0.96846188  -1.29809092
H   -2.01142219  -1.47697891   0.23166378
18
Energy:  -235.8219988700
C    0.16930159  -1.46527269   0.21675769
H    0.22056701  -1.54047086   1.31391745
H    0.27362147  -2.48667493  -0.17298381
C    1.33173196  -0.57987998  -0.27406601
H    1.33140452  -0.55388081  -1.37519851
H    2.29551707  -1.00786395   0.03098591
C    1.17854303   0.85620713   0.26304548
H    1.20402378   0.83113388   1.36381109
H    2.02125377   1.48263034  -0.05744417
C   -0.15488242   1.47199692  -0.20629757
H   -0.12805850   1.57980431  -1.30146427
H   -0.27346798   2.48341171   0.20519398
C   -1.36434529   0.60088724   0.19879378
H   -1.50435503   0.67037702   1.28794072
H   -2.27894303   1.00230523  -0.25894338
C   -1.19892505  -0.88363234  -0.19938344
H   -1.30960264  -0.98305999  -1.28963748
H   -2.00764260  -1.47519642   0.25124692
18
Energy:  -235.8217694300
C    0.17212302  -1.46567277   0.21635197
H    0.22995202  -1.54251598   1.31302402
H    0.27522091  -2.48647566  -0.17539672
C    1.33111571  -0.57842770  -0.27862902
H    1.32343355  -0.54668826  -1.37962582
H    2.29707368  -1.00742811   0.01785256
C    1.17897430   0.85438951   0.26679334
H    1.20103022   0.82212187   1.36747406
H    2.02314816   1.48216400  -0.04705992
C   -0.15223098   1.47339622  -0.20413828
H   -0.11975954   1.58787058  -1.29836412
H   -0.27196894   2.48253070   0.21268050
C   -1.36556087   0.60265104   0.19163397
H   -1.52012842   0.68122721   1.27796899
H   -2.27394093   1.00058140  -0.28134513
C   -1.19928806  -0.88612834  -0.19306005
H   -1.31976452  -0.99764029  -1.28099307
H   -2.00368765  -1.47313361   0.27110710
18
Energy:  -235.8215090000
C    0.17493301  -1.46619547   0.21577883
H    0.23921592  -1.54497274   1.31194295
H    0.27675159  -2.48625311  -0.17829119
C    1.33054464  -0.57701333  -0.28304329
H    1.31593748  -0.53974582  -1.38383078
H    2.29850459  -1.00692561   0.00531422
C    1.17944432   0.85260076   0.27038843
H    1.19838542   0.81346734   1.37092266
H    2.02494410   1.48161642  -0.03723924
C   -0.14965737   1.47484149  -0.20183625
H   -0.11161830   1.59624217  -1.29514666
H   -0.27055960   2.48160936   0.22052915
C   -1.36669116   0.60430726   0.18429222
H   -1.53625174   0.69214156   1.26761510
H   -2.26876680   0.99874895  -0.30371537
C   -1.19959589  -0.88846364  -0.18654454
H   -1.33019849  -1.01227208  -1.27184406
H   -1.99958005  -1.47091168   0.29098218
18
Energy:  -235.8212163200
C    0.17766426  -1.46671056   0.21511492
H    0.24841043  -1.54779817   1.31064705
H    0.27817007  -2.48593863  -0.18151982
C    1.32996661  -0.57561876  -0.28730369
H    1.30883896  -0.53305268  -1.38783688
H    2.29979739  -1.00637427  -0.00665048
C    1.17989685   0.85088488   0.27382828
H    1.19607170   0.80517045   1.37417961
H    2.02664274   1.48102461  -0.02797132
C   -0.14712103   1.47633566  -0.19945051
H   -0.10368787   1.60492790  -1.29160620
H   -0.26924354   2.48051889   0.22868166
C   -1.36788678   0.60602883   0.17701225
H   -1.55238072   0.70293465   1.25688575
H   -2.26322644   0.99665585  -0.32630441
C   -1.19998376  -0.89087896  -0.18005146
H   -1.34081109  -1.02682127  -1.26246104
H   -1.99537611  -1.46846661   0.31108066
18
Energy:  -235.8208939200
C    0.18034573  -1.46733707   0.21429162
H    0.25744543  -1.55090938   1.30916420
H    0.27956031  -2.48562691  -0.18512458
C    1.32942496  -0.57425319  -0.29142651
H    1.30215189  -0.52655011  -1.39163785
H    2.30096567  -1.00576235  -0.01810904
C    1.18038341   0.84918660   0.27715457
H    1.19405574   0.79715464   1.37727371
H    2.02825929   1.48037450  -0.01916361
C   -0.14471353   1.47785663  -0.19694329
H   -0.09593511   1.61376541  -1.28793080
H   -0.26798639   2.47940169   0.23709917
C   -1.36906309   0.60762120   0.16957219
H   -1.56869570   0.71367478   1.24582160
H   -2.25751391   0.99448174  -0.34885241
C   -1.20038136  -0.89312585  -0.17346221
H   -1.35164248  -1.04135729  -1.25273449
H   -1.99091919  -1.46577321   0.33128211
18
Energy:  -235.8205419200
C    0.18296159  -1.46798272   0.21337110
H    0.26638986  -1.55428918   1.30752578
H    0.28084646  -2.48527451  -0.18900500
C    1.32887878  -0.57290805  -0.29543479
H    1.29579400  -0.52026407  -1.39528945
H    2.30202717  -1.00511539  -0.02909770
C    1.18087287   0.84754691   0.28034777
H    1.19232863   0.78943386   1.38019224
H    2.02979033   1.47969233  -0.01084402
C   -0.14232811   1.47940293  -0.19429149
H   -0.08840390   1.62279713  -1.28403922
H   -0.26681201   2.47824684   0.24577671
C   -1.37024704   0.60921333   0.16224492
H   -1.58514683   0.72439034   1.23435352
H   -2.25142249   0.99205996  -0.37145247
C   -1.20085275  -0.89544913  -0.16683726
H   -1.36259921  -1.05577989  -1.24271668
H   -1.98633569  -1.46289886   0.35147042
18
Energy:  -235.8201624900
C    0.18553642  -1.46866417   0.21232887
H    0.27520460  -1.55791680   1.30570677
H    0.28205836  -2.48486436  -0.19317722
C    1.32836591  -0.57159119  -0.29931800
H    1.28980044  -0.51416569  -1.39877626
H    2.30299949  -1.00443380  -0.03961704
C    1.18135939   0.84593235   0.28342799
H    1.19084257   0.78197468   1.38297836
H    2.03124622   1.47897561  -0.00292707
C   -0.14004976   1.48097217  -0.19158886
H   -0.08103017   1.63201513  -1.27994542
H   -0.26572571   2.47692981   0.25465223
C   -1.37145452   0.61078152   0.15475452
H   -1.60161536   0.73495357   1.22260017
H   -2.24513063   0.98951698  -0.39402437
C   -1.20130544  -0.89762886  -0.16018939
H   -1.37376583  -1.07016384  -1.23235754
H   -1.98159431  -1.45980129   0.37174663
18
Energy:  -235.8197564900
C    0.18803702  -1.46938811   0.21119124
H    0.28390121  -1.56174859   1.30372956
H    0.28318156  -2.48442729  -0.19759924
C    1.32784582  -0.57029065  -0.30310488
H    1.28410470  -0.50823984  -1.40213968
H    2.30386436  -1.00372076  -0.04972867
C    1.18186141   0.84435922   0.28639681
H    1.18960551   0.77475716   1.38562058
H    2.03262743   1.47823385   0.00457581
C   -0.13781844   1.48253773  -0.18875293
H   -0.07388634   1.64131611  -1.27565782
H   -0.26471753   2.47556550   0.26372746
C   -1.37260300   0.61225823   0.14731131
H   -1.61822097   0.74546392   1.21044362
H   -2.23856140   0.98678585  -0.41660602
C   -1.20180379  -0.89980686  -0.15345497
H   -1.38500344  -1.08433630  -1.22167190
H   -1.97667245  -1.45649735   0.39199409
18
Energy:  -235.8193258800
C    0.19048692  -1.47012454   0.20994253
H    0.29246720  -1.56575555   1.30159522
H    0.28423044  -2.48394429  -0.20224730
C    1.32734556  -0.56900862  -0.30679070
H    1.27871638  -0.50247677  -1.40536900
H    2.30464974  -1.00298016  -0.05944070
C    1.18235302   0.84281421   0.28926726
H    1.18857019   0.76776094   1.38813930
H    2.03393753   1.47747050   0.01172169
C   -0.13568435   1.48412623  -0.18583103
H   -0.06691892   1.65072754  -1.27120855
H   -0.26377470   2.47412850   0.27296960
C   -1.37379519   0.61373553   0.13984680
H   -1.63484047   0.75584147   1.19793003
H   -2.23164043   0.98386533  -0.43908776
C   -1.20233878  -0.90190268  -0.14670284
H   -1.39640469  -1.09843193  -1.21074704
H   -1.97161778  -1.45302390   0.41228685
18
Energy:  -235.8188722300
C    0.19286660  -1.47089649   0.20859477
H    0.30089342  -1.56993018   1.29930649
H    0.28519340  -2.48342923  -0.20710988
C    1.32684950  -0.56774806  -0.31038443
H    1.27360539  -0.49686815  -1.40849085
H    2.30535374  -1.00222118  -0.06877235
C    1.18285105   0.84130074   0.29203943
H    1.18773522   0.76097928   1.39054475
H    2.03518083   1.47669224   0.01851856
C   -0.13360356   1.48570603  -0.18282592
H   -0.06015253   1.66022779  -1.26656736
H   -0.26292402   2.47258121   0.28237051
C   -1.37493977   0.61512648   0.13232955
H   -1.65148576   0.76608581   1.18510260
H   -2.22454998   0.98081479  -0.46156366
C   -1.20286941  -0.90395025  -0.13990441
H   -1.40790425  -1.11235201  -1.19945803
H   -1.96635821  -1.44929699   0.43254460
18
Energy:  -235.8183974200
C    0.19519510  -1.47167919   0.20714493
H    0.30918659  -1.57424150   1.29687536
H    0.28608471  -2.48287664  -0.21215957
C    1.32636476  -0.56650220  -0.31389268
H    1.26875498  -0.49140659  -1.41150128
H    2.30598599  -1.00144145  -0.07775719
C    1.18333850   0.83981170   0.29472325
H    1.18707629   0.75439189   1.39283743
H    2.03635938   1.47589823   0.02499522
C   -0.13161667   1.48729614  -0.17972396
H   -0.05357481   1.66978877  -1.26177067
H   -0.26213537   2.47097870   0.29190934
C   -1.37610881   0.61650568   0.12481031
H   -1.66814657   0.77620321   1.17190565
H   -2.21710039   0.97756928  -0.48391312
C   -1.20344897  -0.90593070  -0.13308381
H   -1.41951945  -1.12614273  -1.18791265
H   -1.96095358  -1.44540078   0.45278783
18
Energy:  -235.8179032200
C    0.19744397  -1.47249211   0.20561179
H    0.31734025  -1.57868971   1.29430919
H    0.28688552  -2.48228809  -0.21739228
C    1.32587752  -0.56527583  -0.31731852
H    1.26414527  -0.48608421  -1.41441965
H    2.30654566  -1.00064905  -0.08640634
C    1.18382827   0.83835516   0.29731384
H    1.18658575   0.74799510   1.39502831
H    2.03748024   1.47509853   0.03116266
C   -0.12969134   1.48887596  -0.17654871
H   -0.04719789   1.67941696  -1.25679956
H   -0.26143701   2.46926447   0.30158267
C   -1.37722851   0.61779351   0.11725136
H   -1.68480823   0.78617806   1.15841811
H   -2.20944340   0.97417101  -0.50623359
C   -1.20401955  -0.90785016  -0.12621685
H   -1.43120993  -1.13973889  -1.17603837
H   -1.95535494  -1.44125890   0.47297031
18
Energy:  -235.8173915500
C    0.19964360  -1.47330355   0.20398680
H    0.32534743  -1.58324910   1.29160155
H    0.28759190  -2.48165971  -0.22278808
C    1.32539755  -0.56406403  -0.32066819
H    1.25976532  -0.48089262  -1.41724854
H    2.30703827  -0.99984447  -0.09473950
C    1.18430187   0.83692529   0.29982444
H    1.18623726   0.74177226   1.39712256
H    2.03853249   1.47429339   0.03704549
C   -0.12784647   1.49046238  -0.17328820
H   -0.04102227   1.68908271  -1.25168239
H   -0.26082345   2.46748479   0.31138715
C   -1.37834661   0.61906651   0.10969855
H   -1.70141158   0.79597827   1.14449601
H   -2.20143004   0.97055762  -0.52839842
C   -1.20462166  -0.90970265  -0.11931893
H   -1.44297589  -1.15315218  -1.16392181
H   -1.94963606  -1.43693309   0.49316588
18
Energy:  -235.8168643900
C    0.20176381  -1.47414367   0.20227377
H    0.33321108  -1.58791646   1.28877224
H    0.28822548  -2.48100365  -0.22833921
C    1.32491674  -0.56287133  -0.32394462
H    1.25559543  -0.47582631  -1.41999202
H    2.30747032  -0.99903158  -0.10277425
C    1.18476900   0.83551635   0.30225409
H    1.18602800   0.73571645   1.39912761
H    2.03953124   1.47348216   0.04266327
C   -0.12607869   1.49202845  -0.16995989
H   -0.03503451   1.69879118  -1.24639811
H   -0.26029054   2.46559733   0.32128927
C   -1.37943626   0.62025422   0.10208990
H   -1.71798489   0.80562246   1.13033756
H   -2.19322482   0.96681052  -0.55052235
C   -1.20521999  -0.91148281  -0.11240151
H   -1.45481768  -1.16638153  -1.15144978
H   -1.94368208  -1.43233996   0.51324838
18
Energy:  -235.8163238700
C    0.20382740  -1.47498659   0.20048631
H    0.34093540  -1.59267897   1.28581275
H    0.28876593  -2.48030709  -0.23402955
C    1.32443450  -0.56169190  -0.32715162
H    1.25162551  -0.47088131  -1.42266366
H    2.30784024  -0.99820981  -0.11053018
C    1.18522474   0.83413501   0.30460771
H    1.18594292   0.72981874   1.40104184
H    2.04047331   1.47267196   0.04802056
C   -0.12438779   1.49359885  -0.16654830
H   -0.02924872   1.70852586  -1.24097673
H   -0.25983531   2.46364108   0.33130288
C   -1.38049695   0.62140414   0.09449417
H   -1.73450925   0.81509934   1.11576224
H   -2.18468765   0.96285734  -0.57248367
C   -1.20583207  -0.91318930  -0.10542601
H   -1.46670504  -1.17940251  -1.13875429
H   -1.93762552  -1.42758302   0.53330992
18
Energy:  -235.8157722500
C    0.20581506  -1.47584591   0.19861673
H    0.34851123  -1.59753167   1.28273944
H    0.28922143  -2.47957668  -0.23985212
C    1.32395055  -0.56052804  -0.33029448
H    1.24783866  -0.46605144  -1.42525844
H    2.30815639  -0.99738365  -0.11801734
C    1.18566605   0.83277697   0.30688491
H    1.18596801   0.72407236   1.40287657
H    2.04135860   1.47186044   0.05314166
C   -0.12277323   1.49515432  -0.16307957
H   -0.02365697   1.71828908  -1.23539856
H   -0.25947123   2.46158379   0.34140856
C   -1.38151544   0.62247518   0.08683628
H   -1.75095939   0.82439778   1.10091337
H   -2.17590449   0.95873341  -0.59434608
C   -1.20646305  -0.91483418  -0.09844477
H   -1.47863788  -1.19220820  -1.12572823
H   -1.93136264  -1.42256174   0.55327643
18
Energy:  -235.8152118500
C    0.20774239  -1.47671379   0.19667730
H    0.35593533  -1.60246390   1.27954624
H    0.28958208  -2.47881288  -0.24580221
C    1.32345850  -0.55938128  -0.33337026
H    1.24422495  -0.46133160  -1.42779166
H    2.30841303  -0.99655313  -0.12525179
C    1.18609036   0.83144262   0.30909323
H    1.18609261   0.71847031   1.40463031
H    2.04218871   1.47105305   0.05803308
C   -0.12123931   1.49670092  -0.15953114
H   -0.01826379   1.72806976  -1.22969193
H   -0.25919661   2.45943817   0.35160435
C   -1.38250760   0.62350703   0.07919579
H   -1.76730348   0.83349657   1.08569369
H   -2.16683312   0.95441276  -0.61607950
C   -1.20705887  -0.91637421  -0.09139984
H   -1.49061638  -1.20480510  -1.11246510
H   -1.92496714  -1.41733347   0.57318380
18
Energy:  -235.8146449200
C    0.20959419  -1.47758956   0.19466009
H    0.36321207  -1.60747486   1.27624657
H    0.28985474  -2.47801612  -0.25186765
C    1.32296244  -0.55824730  -0.33638959
H    1.24077011  -0.45671907  -1.43025493
H    2.30862112  -0.99572352  -0.13224324
C    1.18649864   0.83013162   0.31122839
H    1.18630491   0.71300896   1.40630933
H    2.04296820   1.47024876   0.06271373
C   -0.11978477   1.49823017  -0.15593855
H   -0.01306860   1.73786561  -1.22383986
H   -0.25902021   2.45720177   0.36189288
C   -1.38343891   0.62445064   0.07147976
H   -1.78355715   0.84241520   1.07018231
H   -2.15749033   0.94990430  -0.63765840
C   -1.20770668  -0.91786852  -0.08436354
H   -1.50259888  -1.21715828  -1.09888074
H   -1.91837921  -1.41183797   0.59299780
18
Energy:  -235.8140737300
C    0.21136764  -1.47847672   0.19258552
H    0.37034261  -1.61255394   1.27283627
H    0.29002950  -2.47718250  -0.25803810
C    1.32245725  -0.55712912  -0.33934645
H    1.23745569  -0.45220356  -1.43266366
H    2.30877535  -0.99489091  -0.13901571
C    1.18688802   0.82884288   0.31330076
H    1.18659984   0.70767444   1.40791740
H    2.04369546   1.46945124   0.06719298
C   -0.11840968   1.49975827  -0.15227252
H   -0.00806464   1.74767170  -1.21786552
H   -0.25894071   2.45485675   0.37224858
C   -1.38436368   0.62534304   0.06378971
H   -1.79965872   0.85110856   1.05430052
H   -2.14786839   0.94519759  -0.65910527
C   -1.20830477  -0.91924736  -0.07725630
H   -1.51460712  -1.22928219  -1.08506124
H   -1.91165200  -1.40611634   0.61272739
18
Energy:  -235.8135006700
C    0.21307848  -1.47936844   0.19043847
H    0.37731850  -1.61769449   1.26933740
H    0.29010772  -2.47631977  -0.26431605
C    1.32193638  -0.55602165  -0.34225385
H    1.23428076  -0.44778879  -1.43501430
H    2.30887820  -0.99405727  -0.14556955
C    1.18725660   0.82757896   0.31530656
H    1.18697593   0.70247001   1.40945871
H    2.04436643   1.46866156   0.07147087
C   -0.11710365   1.50125561  -0.14855794
H   -0.00326828   1.75748138  -1.21174587
H   -0.25894954   2.45243777   0.38268487
C   -1.38517272   0.62614501   0.05602031
H   -1.81567982   0.85962274   1.03817631
H   -2.13798787   0.94030059  -0.68041758
C   -1.20892298  -0.92057623  -0.07015457
H   -1.52661159  -1.24114612  -1.07092755
H   -1.90476086  -1.40015902   0.63233814
18
Energy:  -235.8129280000
C    0.21471431  -1.48025597   0.18824758
H    0.38415673  -1.62289920   1.26572648
H    0.29008850  -2.47539878  -0.27067650
C    1.32141131  -0.55493081  -0.34509671
H    1.23123249  -0.44347320  -1.43731014
H    2.30893746  -0.99322804  -0.15192570
C    1.18760206   0.82633661   0.31724722
H    1.18742289   0.69738656   1.41092542
H    2.04498996   1.46787421   0.07555932
C   -0.11592085   1.50276150  -0.14475614
H    0.00132002   1.76727693  -1.20550560
H   -0.25904670   2.44992791   0.39319305
C   -1.38601260   0.62692339   0.04830108
H   -1.83147196   0.86788667   1.02162474
H   -2.12776203   0.93516305  -0.70156075
C   -1.20954918  -0.92176943  -0.06297829
H   -1.53862198  -1.25276634  -1.05662305
H   -1.89774879  -1.39399322   0.65188236
18
Energy:  -235.8123582300
C    0.21628316  -1.48118377   0.18596771
H    0.39082454  -1.62816807   1.26202957
H    0.28999261  -2.47449117  -0.27714961
C    1.32087336  -0.55386158  -0.34789983
H    1.22830423  -0.43924511  -1.43955864
H    2.30894609  -0.99240601  -0.15807040
C    1.18793317   0.82510881   0.31913221
H    1.18791277   0.69242904   1.41234021
H    2.04556262   1.46709872   0.07948403
C   -0.11475503   1.50421886  -0.14095981
H    0.00576319   1.77710890  -1.19914939
H   -0.25928095   2.44727236   0.40373772
C   -1.38670457   0.62755994   0.04044180
H   -1.84729634   0.87602097   1.00489918
H   -2.11741205   0.92992343  -0.72245181
C   -1.21010452  -0.92292058  -0.05582716
H   -1.55060154  -1.26416464  -1.04189897
H   -1.89049908  -1.38747828   0.67120755
18
Energy:  -235.8117937900
C    0.21775833  -1.48207555   0.18367848
H    0.39736913  -1.63349739   1.25824285
H    0.28976068  -2.47349915  -0.28369558
C    1.32030963  -0.55279304  -0.35063800
H    1.22547210  -0.43510738  -1.44175541
H    2.30890861  -0.99157938  -0.16405653
C    1.18823658   0.82391458   0.32095125
H    1.18847977   0.68757116   1.41368128
H    2.04609559   1.46633480   0.08322983
C   -0.11373594   1.50568323  -0.13705517
H    0.00994111   1.78689921  -1.19267774
H   -0.25958611   2.44458286   0.41438859
C   -1.38742044   0.62818096   0.03270849
H   -1.86270256   0.88381205   0.98771638
H   -2.10668181   0.92438127  -0.74335558
C   -1.21071721  -0.92394236  -0.04857866
H   -1.56251644  -1.27519652  -1.02708880
H   -1.88322936  -1.38084752   0.69057867
18
Energy:  -235.8112356000
C    0.21917819  -1.48300689   0.18130288
H    0.40374002  -1.63887142   1.25436853
H    0.28944589  -2.47250530  -0.29032623
C    1.31974188  -0.55175063  -0.35334143
H    1.22275874  -0.43106365  -1.44390821
H    2.30882886  -0.99076289  -0.16983508
C    1.18850987   0.82273964   0.32271569
H    1.18906857   0.68284104   1.41496849
H    2.04656508   1.46557888   0.08681474
C   -0.11275686   1.50712629  -0.13314264
H    0.01396147   1.79672149  -1.18608285
H   -0.26002989   2.44174984   0.42506282
C   -1.38797022   0.62867647   0.02476270
H   -1.87814145   0.89148635   0.97042884
H   -2.09569915   0.91865981  -0.76390604
C   -1.21125884  -0.92488394  -0.04132579
H   -1.57448416  -1.28606913  -1.01197425
H   -1.87571632  -1.37384413   0.70969219
18
Energy:  -235.8106887600
C    0.22053304  -1.48391953   0.17891271
H    0.40998769  -1.64431012   1.25041442
H    0.28903507  -2.47146842  -0.29702839
C    1.31915072  -0.55072078  -0.35598565
H    1.22013159  -0.42710614  -1.44601713
H    2.30870651  -0.98994873  -0.17546178
C    1.18876014   0.82157746   0.32442149
H    1.18970973   0.67821322   1.41619204
H    2.04699440   1.46482882   0.09025230
C   -0.11186423   1.50853374  -0.12919960
H    0.01779784   1.80655860  -1.17937774
H   -0.26056325   2.43882240   0.43579460
C   -1.38860462   0.62917673   0.01702993
H   -1.89323826   0.89885590   0.95264094
H   -2.08450941   0.91276963  -0.78434604
C   -1.21181922  -0.92575185  -0.03412090
H   -1.58635356  -1.29662679  -0.99653698
H   -1.86811253  -1.36666233   0.72869015
18
Energy:  -235.8101542000
C    0.22176995  -1.48485507   0.17645108
H    0.41607214  -1.64980080   1.24638067
H    0.28850343  -2.47037921  -0.30379895
C    1.31854264  -0.54970716  -0.35858282
H    1.21758089  -0.42323473  -1.44806847
H    2.30854507  -0.98914251  -0.18091886
C    1.18898099   0.82045316   0.32606003
H    1.19038233   0.67370093   1.41735573
H    2.04738783   1.46409762   0.09353651
C   -0.11108733   1.50993090  -0.12519188
H    0.02140981   1.81638005  -1.17254899
H   -0.26122731   2.43574918   0.44657977
C   -1.38898066   0.62947233   0.00895253
H   -1.90824545   0.90604672   0.93483826
H   -2.07302741   0.90663378  -0.80459217
C   -1.21232696  -0.92645725  -0.02675741
H   -1.59819813  -1.30690274  -0.98097767
H   -1.86034018  -1.35916337   0.74755700
18
Energy:  -235.8096343400
C    0.22295932  -1.48577607   0.17399190
H    0.42202240  -1.65532459   1.24227316
H    0.28786191  -2.46926615  -0.31063514
C    1.31790890  -0.54869704  -0.36113830
H    1.21509708  -0.41943017  -1.45009983
H    2.30832480  -0.98833337  -0.18624790
C    1.18918250   0.81933832   0.32765440
H    1.19109421   0.66926668   1.41847212
H    2.04772101   1.46337384   0.09668684
C   -0.11037403   1.51131562  -0.12117514
H    0.02482676   1.82615252  -1.16562046
H   -0.26198689   2.43263616   0.45739986
C   -1.38945888   0.62979755   0.00124597
H   -1.92292245   0.91294406   0.91644068
H   -2.06124520   0.90027328  -0.82463237
C   -1.21287031  -0.92712786  -0.01953019
H   -1.60991969  -1.31684646  -0.96510135
H   -1.85247975  -1.35147450   0.76629013
18
Energy:  -235.8091312700
C    0.22405157  -1.48670422   0.17144578
H    0.42780226  -1.66090121   1.23810625
H    0.28710640  -2.46809566  -0.31753106
C    1.31724887  -0.54770996  -0.36365468
H    1.21269635  -0.41571719  -1.45207852
H    2.30807108  -0.98753497  -0.19141578
C    1.18933886   0.81825967   0.32919449
H    1.19182568   0.66494764   1.41952637
H    2.04801256   1.46266473   0.09969340
C   -0.10975147   1.51265259  -0.11704931
H    0.02803214   1.83593970  -1.15862444
H   -0.26288214   2.42937734   0.46825764
C   -1.38962475   0.62991667  -0.00691623
H   -1.93752329   0.91966316   0.89805809
H   -2.04924241   0.89372418  -0.84439512
C   -1.21329550  -0.92761398  -0.01202359
H   -1.62164874  -1.32654268  -0.94914263
H   -1.84447581  -1.34350398   0.78482372
18
Energy:  -235.8086470700
C    0.22507772  -1.48763303   0.16891020
H    0.43342706  -1.66650874   1.23383633
H    0.28626456  -2.46691858  -0.32448933
C    1.31659081  -0.54673405  -0.36610743
H    1.21035397  -0.41208211  -1.45402108
H    2.30778816  -0.98674329  -0.19644821
C    1.18948684   0.81718661   0.33066815
H    1.19257388   0.66072587   1.42053189
H    2.04826474   1.46196135   0.10258010
C   -0.10922833   1.51399665  -0.11300106
H    0.03105852   1.84569846  -1.15146058
H   -0.26388962   2.42602358   0.47915534
C   -1.38997876   0.63008267  -0.01460305
H   -1.95167030   0.92604933   0.87913860
H   -2.03700862   0.88697264  -0.86403046
C   -1.21380454  -0.92806854  -0.00484449
H   -1.63321860  -1.33592031  -0.93278644
H   -1.83634584  -1.33526670   0.80324589
18
Energy:  -235.8081842200
C    0.22600902  -1.48857795   0.16628550
H    0.43890443  -1.67218213   1.22956689
H    0.28527508  -2.46567214  -0.33147933
C    1.31588310  -0.54578454  -0.36853717
H    1.20806366  -0.40853639  -1.45590523
H    2.30744780  -0.98596442  -0.20133612
C    1.18957565   0.81615923   0.33210310
H    1.19334052   0.65661869   1.42147727
H    2.04846665   1.46127990   0.10532364
C   -0.10879052   1.51526743  -0.10881009
H    0.03388541   1.85549299  -1.14428928
H   -0.26506005   2.42249935   0.49004951
C   -1.38996252   0.63000817  -0.02284231
H   -1.96580538   0.93229528   0.86041921
H   -2.02449414   0.87997863  -0.88335569
C   -1.21415618  -0.92830625   0.00269319
H   -1.64478614  -1.34505501  -0.91645398
H   -1.82805472  -1.32669901   0.82136527
18
Energy:  -235.8077447600
C    0.22688828  -1.48950463   0.16377895
H    0.44423966  -1.67787453   1.22517439
H    0.28416716  -2.46441381  -0.33852593
C    1.31517078  -0.54483673  -0.37088530
H    1.20581799  -0.40505541  -1.45778770
H    2.30706884  -0.98518753  -0.20611002
C    1.18968050   0.81513172   0.33346600
H    1.19413972   0.65259080   1.42238844
H    2.04861963   1.46060827   0.10794240
C   -0.10841197   1.51658577  -0.10478933
H    0.03650150   1.86521153  -1.13691214
H   -0.26634673   2.41892094   0.50100975
C   -1.39019002   0.63003511  -0.03053159
H   -1.97935279   0.93812970   0.84095045
H   -2.01178940   0.87281930  -0.90246602
C   -1.21463461  -0.92861272   0.00986647
H   -1.65607890  -1.35372720  -0.89968653
H   -1.81974795  -1.31799874   0.83939209
18
Energy:  -235.8073306700
C    0.22763810  -1.49042829   0.16106228
H    0.44941224  -1.68360957   1.22083360
H    0.28295202  -2.46308503  -0.34557071
C    1.31440741  -0.54392186  -0.37324092