11
Energy: -6292.4051585492
C    1.05163661   1.32213661  -0.10949946
C   -0.43549184   1.14986497  -0.05245596
C   -1.12215567  -0.01148676   0.01048980
C   -0.50617208  -1.35118909   0.04116820
O    0.68920642  -1.57700458   0.11989274
H    1.54050731   0.51357520  -0.66875825
H    1.31932020   2.30319141  -0.53019538
H    1.47203048   1.27432575   0.91219636
H   -1.23570565  -2.20101832  -0.01123907
H   -2.21621991   0.01611914   0.03691717
H   -1.02707547   2.07361781  -0.05164438
11
Energy: -6292.4050592035
C    1.05172992   1.32220020  -0.10978078
C   -0.43550911   1.14954003  -0.05259190
C   -1.12223587  -0.01143122   0.01045042
C   -0.50643058  -1.35134075   0.04122320
O    0.68945348  -1.57638347   0.12016543
H    1.54066657   0.51342302  -0.66873994
H    1.31930958   2.30352495  -0.53005450
H    1.47186886   1.27407219   0.91198782
H   -1.23573100  -2.20143299  -0.01132585
H   -2.21648840   0.01625533   0.03691091
H   -1.02676288   2.07369776  -0.05137448
11
Energy: -6292.4049674662
C    1.05181928   1.32226027  -0.10995774
C   -0.43551355   1.14936147  -0.05271161
C   -1.12229930  -0.01146004   0.01042510
C   -0.50660132  -1.35146685   0.04127286
O    0.68964381  -1.57586337   0.12037945
H    1.54080188   0.51327411  -0.66872954
H    1.31930119   2.30381556  -0.52994780
H    1.47172441   1.27386890   0.91178622
H   -1.23578824  -2.20178664  -0.01139808
H   -2.21672965   0.01636967   0.03690541
H   -1.02649561   2.07374634  -0.05115507
11
Energy: -6292.4048911162
C    1.05190597   1.32231523  -0.11006920
C   -0.43549295   1.14931151  -0.05282825
C   -1.12238021  -0.01158164   0.01040908
C   -0.50666993  -1.35157842   0.04132398
O    0.68975639  -1.57538067   0.12056243
H    1.54092905   0.51312152  -0.66872562
H    1.31929291   2.30409105  -0.52985947
H    1.47158377   1.27368930   0.91157767
H   -1.23586897  -2.20211779  -0.01146405
H   -2.21695776   0.01647697   0.03690028
H   -1.02624204   2.07376747  -0.05095865
11
Energy: -6292.4048325453
C    1.05198354   1.32236002  -0.11012483
C   -0.43544261   1.14938601  -0.05293853
C   -1.12248902  -0.01179032   0.01040153
C   -0.50662039  -1.35167246   0.04137588
O    0.68976944  -1.57494396   0.12071213
H    1.54104503   0.51297418  -0.66872752
H    1.31928445   2.30434245  -0.52978922
H    1.47145214   1.27353548   0.91137276
H   -1.23596344  -2.20241796  -0.01152232
H   -2.21716058   0.01657548   0.03689571
H   -1.02600797   2.07376144  -0.05078826
11
Energy: -6292.4047760795
C    1.05204649   1.32239189  -0.11013778
C   -0.43536888   1.14955347  -0.05303611
C   -1.12261937  -0.01205407   0.01040080
C   -0.50647008  -1.35174638   0.04142536
O    0.68969072  -1.57457170   0.12082587
H    1.54114417   0.51284338  -0.66873350
H    1.31927622   2.30455662  -0.52973713
H    1.47133745   1.27341168   0.91118721
H   -1.23605931  -2.20267297  -0.01157056
H   -2.21732616   0.01666072   0.03689192
H   -1.02580516   2.07373438  -0.05064945
11
Energy: -6292.4047071379
C    1.05209195   1.32241141  -0.11012650
C   -0.43528957   1.14975334  -0.05311368
C   -1.12274849  -0.01231615   0.01040398
C   -0.50627515  -1.35179932   0.04146735
O    0.68956299  -1.57428392   0.12090422
H    1.54122071   0.51273994  -0.66874087
H    1.31926908   2.30472123  -0.52970189
H    1.47124771   1.27332090   0.91103785
H   -1.23614252  -2.20286889  -0.01160679
H   -2.21744734   0.01672746   0.03688907
H   -1.02564655   2.07369859  -0.05054660
11
Energy: -6292.4046347379
C    1.05212102   1.32242202  -0.11010934
C   -0.43522475   1.14992237  -0.05316730
C   -1.12285042  -0.01252164   0.01040788
C   -0.50610382  -1.35183335   0.04149771
O    0.68944278  -1.57408843   0.12095285
H    1.54127257   0.51266891  -0.66874712
H    1.31926384   2.30483234  -0.52968028
H    1.47118643   1.27326157   0.91093401
H   -1.23620300  -2.20300121  -0.01163087
H   -2.21752588   0.01677318   0.03688716
H   -1.02553809   2.07366724  -0.05047888
11
Energy: -6292.4045868485
C    1.05213522   1.32242663  -0.11009802
C   -0.43518866   1.15001767  -0.05319479
C   -1.12290637  -0.01263383   0.01041034
C   -0.50600545  -1.35185009   0.04151365
O    0.68937191  -1.57398911   0.12097624
H    1.54129886   0.51263267  -0.66875064
H    1.31926107   2.30488854  -0.52966994
H    1.47115523   1.27323208   0.91088065
H   -1.23623479  -2.20306819  -0.01164295
H   -2.21756462   0.01679651   0.03688620
H   -1.02548280   2.07364932  -0.05044509
11
Energy: -6292.4042390631
C    1.05253105   1.32232783  -0.11255437
C   -0.43472144   1.14870102  -0.05313084
C   -1.12347464  -0.01196763   0.01036207
C   -0.50634018  -1.35225160   0.04162150
O    0.69028158  -1.57329846   0.12126427
H    1.54094384   0.51311099  -0.66807080
H    1.31916108   2.30500987  -0.52925691
H    1.47135606   1.27291298   0.91175842
H   -1.23666740  -2.20368877  -0.01177341
H   -2.21765915   0.01688156   0.03683310
H   -1.02557948   2.07435782  -0.05018894
11
Energy: -6292.4034813475
C    1.05276335   1.32226505  -0.11408382
C   -0.43450013   1.14772750  -0.05305708
C   -1.12372799  -0.01138019   0.01032690
C   -0.50673239  -1.35247994   0.04166509
O    0.69098443  -1.57299593   0.12141969
H    1.54069383   0.51344960  -0.66764758
H    1.31910374   2.30501776  -0.52901321
H    1.47151562   1.27274989   0.91236088
H   -1.23688914  -2.20398945  -0.01183960
H   -2.21767820   0.01690476   0.03680167
H   -1.02570574   2.07482339  -0.05006965
11
Energy: -6292.4032040035
C    1.05044920   1.31825048  -0.10942131
C   -0.43887408   1.15399677  -0.05650312
C   -1.12439144  -0.00901724   0.01973614
C   -0.50110900  -1.34639077   0.04192874
O    0.69663041  -1.56199605   0.11589502
H    1.53348195   0.50250404  -0.66479477
H    1.32782520   2.30019038  -0.52838190
H    1.46068264   1.26117615   0.91429911
H   -1.22665399  -2.20035624  -0.02241385
H   -2.21992174   0.01575725   0.05505234
H   -1.02849978   2.07783544  -0.06858752
11
Energy: -6292.4005458087
C    1.04630630   1.31664444  -0.10661200
C   -0.44282739   1.15712807  -0.05937917
C   -1.12501722  -0.00511641   0.02894638
C   -0.49648699  -1.33839597   0.04155857
O    0.70157058  -1.55453711   0.11011153
H    1.52608938   0.49322205  -0.66211851
H    1.33593055   2.29146686  -0.52672465
H    1.45176934   1.25103715   0.91773099
H   -1.21557552  -2.19520265  -0.03199599
H   -2.21965097   0.01414625   0.07219499
H   -1.03266333   2.08144235  -0.08695063
11
Energy: -6292.3964883077
C    1.04294413   1.31085631  -0.10829423
C   -0.44590911   1.16138070  -0.06178715
C   -1.12649324  -0.00153386   0.03786343
C   -0.49205138  -1.33138383   0.04105299
O    0.70668944  -1.54888249   0.10443734
H    1.51697183   0.48847517  -0.65730096
H    1.34348454   2.28258013  -0.52465302
H    1.44476524   1.24238417   0.92275054
H   -1.20551043  -2.18936080  -0.04066933
H   -2.21815000   0.01240460   0.08770709
H   -1.03744083   2.08482247  -0.10438604
11
Energy: -6292.3908855719
C    1.04009773   1.30624643  -0.10623972
C   -0.44981970   1.16553154  -0.06429481
C   -1.12534830   0.00235265   0.04601951
C   -0.48645045  -1.32635911   0.04086635
O    0.71131775  -1.54362740   0.09898760
H    1.50885780   0.48308914  -0.65360688
H    1.35048034   2.27468372  -0.52277209
H    1.43807477   1.23519090   0.92493498
H   -1.19799955  -2.18394901  -0.04847036
H   -2.21816808   0.01077085   0.10140519
H   -1.04185754   2.08774112  -0.12014336
11
Energy: -6292.3851358018
C    1.03695228   1.30511976  -0.10163114
C   -0.45296160   1.16996006  -0.06677245
C   -1.12444755   0.00479474   0.05343929
C   -0.48196207  -1.32220100   0.04102996
O    0.71764268  -1.53892901   0.09399076
H    1.50236119   0.47568474  -0.65159898
H    1.35685144   2.26783313  -0.52097299
H    1.43189112   1.22901300   0.92550545
H   -1.19305277  -2.17936613  -0.05550014
H   -2.21838429   0.00923513   0.11328885
H   -1.04579730   2.09047106  -0.13412096
11
Energy: -6292.3787807693
C    1.03427885   1.30473282  -0.09953591
C   -0.45536188   1.17351561  -0.06855787
C   -1.12470431   0.00635485   0.05999393
C   -0.47674390  -1.31906675   0.04163401
O    0.72316056  -1.53446195   0.08946702
H    1.49619036   0.46862905  -0.64949282
H    1.36265457   2.26288240  -0.51924265
H    1.42702412   1.22361701   0.92714841
H   -1.19018533  -2.17560691  -0.06170525
H   -2.21791551   0.00775358   0.12320546
H   -1.04937521   2.09322428  -0.14628006
11
Energy: -6292.3732380747
C    1.03267077   1.30311083  -0.10055301
C   -0.45795146   1.17567355  -0.06959015
C   -1.12467211   0.00797436   0.06571861
C   -0.47217838  -1.31670832   0.04240261
O    0.72791966  -1.53029067   0.08544224
H    1.48972502   0.46317686  -0.64651547
H    1.36803568   2.26000125  -0.51773408
H    1.42326496   1.21884888   0.92993194
H   -1.18818947  -2.17223010  -0.06711476
H   -2.21717132   0.00623789   0.13150240
H   -1.05248715   2.09574748  -0.15687519
11
Energy: -6292.3676527102
C    1.03199382   1.30070156  -0.10267931
C   -0.46050295   1.17715470  -0.07020095
C   -1.12395999   0.00924956   0.07066764
C   -0.46925057  -1.31477082   0.04309925
O    0.73196508  -1.52660642   0.08199294
H    1.48334895   0.45897328  -0.64311795
H    1.37289521   2.25886731  -0.51653406
H    1.42011356   1.21476021   0.93254139
H   -1.18638545  -2.16904478  -0.07164024
H   -2.21642225   0.00464975   0.13829689
H   -1.05487313   2.09758332  -0.16582570
11
Energy: -6292.3621746838
C    1.03158154   1.29910611  -0.10376497
C   -0.46226362   1.17871960  -0.07079321
C   -1.12312142   0.00975446   0.07501084
C   -0.46731003  -1.31296515   0.04361280
O    0.73476550  -1.52342701   0.07907154
H    1.47769816   0.45496248  -0.64013378
H    1.37711074   2.25853817  -0.51554010
H    1.41710824   1.21130569   0.93386843
H   -1.18450556  -2.16607113  -0.07534758
H   -2.21565955   0.00300097   0.14386253
H   -1.05651641   2.09857477  -0.17325874
11
Energy: -6292.3578999565
C    1.03104932   1.29900229  -0.10338586
C   -0.46306790   1.18027831  -0.07147101
C   -1.12243858   0.00984508   0.07885382
C   -0.46578459  -1.31118074   0.04393531
O    0.73632702  -1.52071874   0.07659164
H    1.47295484   0.45073849  -0.63784549
H    1.38067712   2.25833037  -0.51462032
H    1.41413882   1.20837222   0.93386946
H   -1.18254381  -2.16338735  -0.07838978
H   -2.21485718   0.00131548   0.14848402
H   -1.05759558   2.09888877  -0.17944396
11
Energy: -6292.3544736141
C    1.03034449   1.30022229  -0.10201418
C   -0.46309622   1.18148397  -0.07217123
C   -1.12187735   0.01005111   0.08218692
C   -0.46464421  -1.30939171   0.04407911
O    0.73700727  -1.51851226   0.07452508
H    1.46905043   0.44649921  -0.63615850
H    1.38360188   2.25798457  -0.51371035
H    1.41130004   1.20590552   0.93291918
H   -1.18056354  -2.16107866  -0.08085066
H   -2.21403836  -0.00037753   0.15228574
H   -1.05824759   2.09868611  -0.18452134
11
Energy: -6292.3510943557
C    1.02957751   1.30207292  -0.10048823
C   -0.46266639   1.18213771  -0.07278778
C   -1.12132545   0.01073582   0.08497869
C   -0.46403207  -1.30760498   0.04407517
O    0.73726373  -1.51683806   0.07285656
H    1.46578782   0.44273530  -0.63479249
H    1.38592411   2.25749771  -0.51280350
H    1.40876441   1.20387081   0.93157354
H   -1.17865499  -2.15920822  -0.08279501
H   -2.21324616  -0.00202943   0.15533836
H   -1.05857355   2.09809429  -0.18859192
11
Energy: -6292.3477310339
C    1.02887982   1.30375943  -0.09950892
C   -0.46207919   1.18238045  -0.07326372
C   -1.12075197   0.01187585   0.08727939
C   -0.46390226  -1.30584983   0.04398057
O    0.73740334  -1.51562597   0.07152424
H    1.46292094   0.43982584  -0.63346127
H    1.38776457   2.25699857  -0.51193169
H    1.40664402   1.20219569   0.93034090
H   -1.17689894  -2.15775482  -0.08433088
H   -2.21250572  -0.00358392   0.15777105
H   -1.05866971   2.09723596  -0.19184128
11
Energy: -6292.3447953916
C    1.02831257   1.30485780  -0.09931310
C   -0.46148951   1.18247427  -0.07360589
C   -1.12020641   0.01323772   0.08918050
C   -0.46404690  -1.30416492   0.04384679
O    0.73749706  -1.51475703   0.07045302
H    1.46029989   0.43784399  -0.63203744
H    1.38924930   2.25659386  -0.51112920
H    1.40494650   1.20080430   0.92945915
H   -1.17533840  -2.15664884  -0.08556249
H   -2.21181939  -0.00500106   0.15972081
H   -1.05861100   2.09621218  -0.19445771
11
Energy: -6292.3425202508
C    1.02788804   1.30526190  -0.09984965
C   -0.46095213   1.18260786  -0.07384227
C   -1.11974669   0.01460299   0.09075387
C   -0.46426994  -1.30259026   0.04370642
O    0.73751912  -1.51413314   0.06958868
H    1.45787774   0.43670048  -0.63051650
H    1.39046093   2.25633061  -0.51041929
H    1.40363454   1.19964690   0.92897292
H   -1.17399224  -2.15582520  -0.08655799
H   -2.21118556  -0.00625572   0.16128349
H   -1.05844898   2.09510211  -0.19656837
11
Energy: -6292.3408149738
C    1.02759704   1.30503841  -0.10094303
C   -0.46048197   1.18287192  -0.07400150
C   -1.11940876   0.01582300   0.09204756
C   -0.46444197  -1.30116405   0.04357795
O    0.73743949  -1.51368407   0.06889533
H    1.45566476   0.43624107  -0.62895482
H    1.39144881   2.25621296  -0.50981498
H    1.40265663   1.19869352   0.92883409
H   -1.17286611  -2.15523004  -0.08735950
H   -2.21060678  -0.00733271   0.16252358
H   -1.05822331   2.09397572  -0.19825583
11
Energy: -6292.3392298559
C    1.02740325   1.30427442  -0.10251366
C   -0.46004231   1.18331746  -0.07411723
C   -1.11918053   0.01691601   0.09319617
C   -0.46450891  -1.29979718   0.04346006
O    0.73723623  -1.51332973   0.06829466
H    1.45350372   0.43629192  -0.62728490
H    1.39232091   2.25621913  -0.50927237
H    1.40188895   1.19784930   0.92896647
H   -1.17186700  -2.15477704  -0.08805685
H   -2.21003972  -0.00831275   0.16358239
H   -1.05794265   2.09279194  -0.19970795
11
Energy: -6292.3374413380
C    1.02730362   1.30310466  -0.10435582
C   -0.45965040   1.18392587  -0.07419873
C   -1.11907554   0.01779367   0.09416891
C   -0.46443536  -1.29856686   0.04336215
O    0.73691396  -1.51305782   0.06779847
H    1.45150976   0.43674189  -0.62562887
H    1.39305608   2.25633242  -0.50881611
H    1.40132935   1.19713972   0.92930450
H   -1.17103370  -2.15445872  -0.08863531
H   -2.20951266  -0.00915127   0.16444115
H   -1.05763795   2.09163822  -0.20089521
11
Energy: -6292.3352679747
C    1.02727642   1.30177431  -0.10619195
C   -0.45932185   1.18460586  -0.07425548
C   -1.11907049   0.01842927   0.09494652
C   -0.46425002  -1.29753889   0.04328800
O    0.73652596  -1.51285510   0.06741077
H    1.44980065   0.43740136  -0.62413237
H    1.39364138   2.25650723  -0.50845821
H    1.40094847   1.19657870   0.92973787
H   -1.17038325  -2.15425149  -0.08908884
H   -2.20905677  -0.00982121   0.16509917
H   -1.05734694   2.09061052  -0.20181161
11
Energy: -6292.3328869955
C    1.02728942   1.30054118  -0.10777505
C   -0.45906629   1.18523829  -0.07429468
C   -1.11911869   0.01885453   0.09552908
C   -0.46402414  -1.29674636   0.04323590
O    0.73615006  -1.51270932   0.06712549
H    1.44845453   0.43807200  -0.62291179
H    1.39407841   2.25668937  -0.50819575
H    1.40070176   1.19616308   0.93015620
H   -1.16990757  -2.15412362  -0.08942333
H   -2.20869482  -0.01032029   0.16557516
H   -1.05710173   2.08978086  -0.20247827
11
Energy: -6292.3307926231
C    1.02731444   1.29960573  -0.10892815
C   -0.45889078   1.18572083  -0.07431990
C   -1.11917653   0.01911222   0.09591902
C   -0.46382908  -1.29620672   0.04320290
O    0.73585659  -1.51261378   0.06693690
H    1.44752378   0.43860237  -0.62204961
H    1.39437022   2.25683526  -0.50802314
H    1.40055417   1.19588738   0.93047839
H   -1.16959519  -2.15405048  -0.08964478
H   -2.20844312  -0.01065229   0.16588586
H   -1.05692525   2.08919870  -0.20291514
11
Energy: -6292.3295574687
C    1.02733188   1.29910365  -0.10953433
C   -0.45880124   1.18598082  -0.07433238
C   -1.11921318   0.01923352   0.09611510
C   -0.46371782  -1.29593295   0.04318689
O    0.73569661  -1.51256618   0.06684273
H    1.44704733   0.43889242  -0.62160323
H    1.39451674   2.25691553  -0.50793729
H    1.40048492   1.19574951   0.93065228
H   -1.16943994  -2.15401724  -0.08975542
H   -2.20831385  -0.01081852   0.16603984
H   -1.05683302   2.08889841  -0.20313211
11
Energy: -6292.3240441877
C    1.02601436   1.29794875  -0.09847748
C   -0.46183335   1.18844696  -0.07273784
C   -1.11699331   0.02391944   0.10279456
C   -0.45936063  -1.29506044   0.04376977
O    0.73990293  -1.51411647   0.06217369
H    1.44268205   0.44459709  -0.62953182
H    1.40085698   2.24004435  -0.51194409
H    1.39463829   1.19523058   0.93675444
H   -1.16463736  -2.15118030  -0.09384026
H   -2.21192871  -0.01271720   0.17167008
H   -1.06058355   2.09434838  -0.21410853
11
Energy: -6292.3128836310
C    1.02397905   1.29869220  -0.08600597
C   -0.46504965   1.19164922  -0.07131689
C   -1.11705933   0.02520631   0.10829717
C   -0.45543148  -1.29525372   0.04458475
O    0.74478856  -1.51582817   0.05822030
H    1.44124637   0.44827382  -0.63938965
H    1.40638306   2.22464416  -0.51643051
H    1.39004118   1.19533933   0.94295760
H   -1.16121170  -2.14868671  -0.09717780
H   -2.21461900  -0.01332939   0.17609551
H   -1.06430562   2.10077589  -0.22332892
11
Energy: -6292.2947952436
C    1.02125327   1.29848445  -0.07495553
C   -0.46910739   1.19640245  -0.06982359
C   -1.11947357   0.02349134   0.11321886
C   -0.45088605  -1.29584943   0.04573221
O    0.74975343  -1.51760225   0.05459319
H    1.44118645   0.45180193  -0.64988035
H    1.41186380   2.21086679  -0.52155387
H    1.38682449   1.19571491   0.95122476
H   -1.15881824  -2.14648811  -0.10018624
H   -2.21600866  -0.01295277   0.17978465
H   -1.06781974   2.10763533  -0.23166400
11
Energy: -6292.2739460445
C    1.01835751   1.29572144  -0.06795494
C   -0.47474858   1.20118435  -0.06795935
C   -1.12263006   0.02080664   0.11734761
C   -0.44583629  -1.29660373   0.04713798
O    0.75426880  -1.51923797   0.05133960
H    1.44143332   0.45623451  -0.65927852
H    1.41731701   2.19959579  -0.52695682
H    1.38522465   1.19613318   0.96197729
H   -1.15732656  -2.14471930  -0.10288679
H   -2.21638926  -0.01191430   0.18278057
H   -1.07089550   2.11432435  -0.23907015
11
Energy: -6292.2539120778
C    1.01587809   1.29035232  -0.06571697
C   -0.48215515   1.20415959  -0.06558060
C   -1.12473774   0.01925457   0.12044180
C   -0.44104029  -1.29743682   0.04863653
O    0.75826336  -1.52061380   0.04855625
H    1.44137639   0.46174085  -0.66653584
H    1.42250634   2.19113049  -0.53215064
H    1.38504807   1.19649339   0.97434149
H   -1.15651811  -2.14342350  -0.10522863
H   -2.21638390  -0.01058703   0.18512417
H   -1.07345527   2.12047263  -0.24542243
11
Energy: -6292.2325192524
C    1.01424037   1.28361332  -0.06719630
C   -0.49039072   1.20451608  -0.06292116
C   -1.12493727   0.01977776   0.12239864
C   -0.43734846  -1.29826139   0.05000250
O    0.76170511  -1.52166082   0.04638109
H    1.44086273   0.46761759  -0.67125650
H    1.42696514   2.18542291  -0.53655355
H    1.38576037   1.19677282   0.98632508
H   -1.15615728  -2.14257735  -0.10709506
H   -2.21647152  -0.00932539   0.18682937
H   -1.07544128   2.12566119  -0.25045761
11
Energy: -6292.2077314787
C    1.01344653   1.27759041  -0.07004381
C   -0.49747901   1.20316961  -0.06060290
C   -1.12385725   0.02159106   0.12340277
C   -0.43510373  -1.29892984   0.05101700
O    0.76432782  -1.52235363   0.04491692
H    1.44015899   0.47254224  -0.67378411
H    1.43018434   2.18206668  -0.53967102
H    1.38666211   1.19696988   0.99557680
H   -1.15602836  -2.14209558  -0.10837434
H   -2.21672617  -0.00839385   0.18792352
H   -1.07679449   2.12940920  -0.25391005
11
Energy: -6292.1886762550
C    1.01317064   1.27408961  -0.07204645
C   -0.50155386   1.20190634  -0.05925820
C   -1.12286590   0.02305014   0.12380038
C   -0.43408802  -1.29930432   0.05155433
O    0.76576744  -1.52270005   0.04418001
H    1.43967675   0.47533605  -0.67483484
H    1.43186913   2.18052113  -0.54128027
H    1.38723294   1.19707509   1.00056884
H   -1.15599173  -2.14187872  -0.10902542
H   -2.21693932  -0.00790725   0.18846060
H   -1.07748551   2.13138292  -0.25567105
11
Energy: -6292.1413673107
C    0.98287717   1.28242447  -0.03618079
C   -0.49988372   1.21776645  -0.05541390
C   -1.12992959   0.03517774   0.14927532
C   -0.41734724  -1.26857213   0.05088110
O    0.78134194  -1.48312101   0.00678206
H    1.39346981   0.41765463  -0.63876787
H    1.43047548   2.15655826  -0.53818998
H    1.40065101   1.16340017   0.97917531
H   -1.11221160  -2.12915497  -0.11739384
H   -2.22775435  -0.00391601   0.19983265
H   -1.07297519   2.12332895  -0.30350854
11
Energy: -6292.0823812688
C    0.98027124   1.28360185  -0.03300364
C   -0.49647880   1.22544162  -0.05104642
C   -1.13709635   0.04809989   0.17029009
C   -0.41393425  -1.24109194   0.04755652
O    0.79759005  -1.44119086  -0.02515038
H    1.33993752   0.37099630  -0.58447241
H    1.42063386   2.14134171  -0.52520654
H    1.41321320   1.13086439   0.95497468
H   -1.07232073  -2.11672748  -0.12239266
H   -2.23390893  -0.00256955   0.20787829
H   -1.06927674   2.11273933  -0.34288620
11
Energy: -6291.9965120337
C    0.98953663   1.26790758  -0.05553589
C   -0.49578651   1.22476741  -0.04467467
C   -1.14096541   0.05968445   0.18587760
C   -0.40518533  -1.21852424   0.04291257
O    0.80189626  -1.39565903  -0.05087309
H    1.28566280   0.33598936  -0.52283989
H    1.41121056   2.14178169  -0.51173982
H    1.42695745   1.10096801   0.94012242
H   -1.04111102  -2.10705117  -0.12519820
H   -2.23624006  -0.00227804   0.21329007
H   -1.06741865   2.10387802  -0.37475440
11
Energy: -6291.8447147389
C    0.99177837   1.25077109  -0.07192699
C   -0.49298398   1.22634651  -0.04082989
C   -1.14355977   0.06217759   0.19697423
C   -0.40099396  -1.19972349   0.03897375
O    0.80635048  -1.35141541  -0.07106324
H    1.24293049   0.29640096  -0.47329917
H    1.40738690   2.15698121  -0.50452683
H    1.43889106   1.07661174   0.92972301
H   -1.01990978  -2.10070638  -0.12638254
H   -2.23573024  -0.00217085   0.21689821
H   -1.06566367   2.09615616  -0.39791395
11
Energy: -6291.7111665308
C    0.98657067   1.24993327  -0.07428653
C   -0.48914781   1.22942605  -0.03976038
C   -1.14487928   0.05993442   0.20540374
C   -0.40360332  -1.18380337   0.03600637
O    0.81550250  -1.30820825  -0.08874033
H    1.21099970   0.24184255  -0.43763307
H    1.40648108   2.17591358  -0.50092510
H    1.44846539   1.05597639   0.91901438
H   -1.00456356  -2.09622935  -0.12658752
H   -2.23432563  -0.00211428   0.21979454
H   -1.06306130   2.08872997  -0.41561804
11
Energy: -6291.5715337727
C    0.97838522   1.26594749  -0.06579888
C   -0.48604343   1.23111056  -0.04074350
C   -1.14444634   0.05722962   0.21089635
C   -0.40639641  -1.17289922   0.03380131
O    0.82341176  -1.27028595  -0.10269433
H    1.19008651   0.18242653  -0.41579062
H    1.40672761   2.19088905  -0.49938370
H    1.45474394   1.04030907   0.90817782
H   -0.99489523  -2.09365202  -0.12613004
H   -2.23330944  -0.00209410   0.22208594
H   -1.05987796   2.08239843  -0.42770929
11
Energy: -6291.4305952143
C    0.97068930   1.28659733  -0.05484540
C   -0.48259871   1.23136177  -0.04268424
C   -1.14345944   0.05472018   0.21416977
C   -0.40622260  -1.16630099   0.03228280
O    0.82707948  -1.24084533  -0.11253133
H    1.17727747   0.13343182  -0.40307407
H    1.40701822   2.19974342  -0.49862438
H    1.45831839   1.02958629   0.89901057
H   -0.98976345  -2.09269598  -0.12547250
H   -2.23296235  -0.00209081   0.22377129
H   -1.05703482   2.07785413  -0.43525367
11
Energy: -6291.3338625680
C    0.96360899   1.30388142  -0.04643470
C   -0.47704664   1.23190468  -0.04489992
C   -1.14296542   0.05072143   0.21622587
C   -0.40809597  -1.16168603   0.03194397
O    0.83086600  -1.22065718  -0.11930904
H    1.16986227   0.10009010  -0.39572577
H    1.40706468   2.20391488  -0.49804091
H    1.46041354   1.02275396   0.89278984
H   -0.98735689  -2.09260213  -0.12491303
H   -2.23289759  -0.00213632   0.22487301
H   -1.05514772   2.07516355  -0.43973221
11
Energy: -6291.2848789375
C    0.95730671   1.31511679  -0.04176202
C   -0.47022697   1.23321048  -0.04682698
C   -1.14289979   0.04545400   0.21753575
C   -0.41422575  -1.15793426   0.03273090
O    0.83694215  -1.20890060  -0.12385936
H    1.16603407   0.08117311  -0.39174896
H    1.40698269   2.20542009  -0.49756139
H    1.46176318   1.01881354   0.88955927
H   -0.98628182  -2.09272603  -0.12455454
H   -2.23286016  -0.00223617   0.22547008
H   -1.05425464   2.07394781  -0.44218760
11
Energy: -6291.2609935548
C    0.95337364   1.32032190  -0.03996740
C   -0.46543939   1.23432431  -0.04792728
C   -1.14290110   0.04160154   0.21818172
C   -0.41982264  -1.15558703   0.03360541
O    0.84182358  -1.20380436  -0.12620844
H    1.16449446   0.07316968  -0.39004449
H    1.40691710   2.20579769  -0.49729005
H    1.46248652   1.01705135   0.88839501
H   -0.98584939  -2.09280307  -0.12439399
H   -2.23282715  -0.00232100   0.22570685
H   -1.05398906   2.07358259  -0.44325358
11
Energy: -6291.2815216116
C    0.93624841   1.36085921  -0.03015714
C   -0.45884277   1.25303470  -0.04700729
C   -1.14100226   0.04116161   0.21818084
C   -0.42689031  -1.13498246   0.02998941
O    0.86149952  -1.17148812  -0.13827886
H    1.14308121  -0.07835260  -0.36090111
H    1.39278967   2.24309733  -0.48322155
H    1.47264209   1.00320090   0.86210099
H   -0.96174528  -2.08291298  -0.12789512
H   -2.23049714  -0.00110406   0.23053770
H   -1.05900768   2.07882671  -0.45655048
11
Energy: -6291.3198840975
C    0.93011844   1.37407772  -0.02402647
C   -0.45273842   1.25509093  -0.04902675
C   -1.14096909   0.03649830   0.21852408
C   -0.43381063  -1.13257499   0.03096847
O    0.86696184  -1.16453198  -0.14252482
H    1.14178659  -0.09493106  -0.35830090
H    1.39274733   2.24491229  -0.48276371
H    1.47369168   0.99965369   0.85823466
H   -0.96089674  -2.08338545  -0.12688345
H   -2.23046766  -0.00119000   0.23121524
H   -1.05813144   2.07773478  -0.45863161
11
Energy: -6291.3892768887
C    0.92352572   1.39429628  -0.01228307
C   -0.44860586   1.25724239  -0.05156684
C   -1.14117427   0.03377419   0.21892442
C   -0.43733250  -1.13079802   0.03092055
O    0.87074638  -1.15316709  -0.14880796
H    1.13915906  -0.12376963  -0.35386312
H    1.39311218   2.24983111  -0.48247678
H    1.47518710   0.99387764   0.85094183
H   -0.95938512  -2.08431889  -0.12502418
H   -2.23045543  -0.00117438   0.23248832
H   -1.05646525   2.07558149  -0.46248651
11
Energy: -6291.4758957556
C    0.91594244   1.42150851   0.00597540
C   -0.44722878   1.26014236  -0.05409874
C   -1.14104800   0.03287822   0.21907901
C   -0.43830782  -1.12863133   0.02969595
O    0.87296812  -1.14087698  -0.15720719
H    1.13539765  -0.16458350  -0.34768790
H    1.39419623   2.25978636  -0.48244336
H    1.47770416   0.98534232   0.83990396
H   -0.95646576  -2.08566650  -0.12194932
H   -2.23054942  -0.00100710   0.23455628
H   -1.05427734   2.07250753  -0.46907981
11
Energy: -6291.5421238718
C    0.90485999   1.45573267   0.03029913
C   -0.44610868   1.26549824  -0.05580184
C   -1.14002440   0.03157616   0.21845505
C   -0.44125675  -1.12425303   0.02780371
O    0.87410128  -1.13900647  -0.16695409
H    1.13283596  -0.20920604  -0.34123427
H    1.39582125   2.27606807  -0.48203782
H    1.48223318   0.97351333   0.82538230
H   -0.95105862  -2.08703917  -0.11709909
H   -2.23061156  -0.00071040   0.23764756
H   -1.05244612   2.06925167  -0.47974191
11
Energy: -6291.6202871670
C    0.89160204   1.49448837   0.05827511
C   -0.44436755   1.27389203  -0.05591067
C   -1.13879309   0.03066579   0.21676351
C   -0.44754612  -1.12006397   0.02539165
O    0.87156356  -1.16060158  -0.17576951
H    1.13583052  -0.24200844  -0.33716407
H    1.39680296   2.29721250  -0.47973440
H    1.48863353   0.95949401   0.80800531
H   -0.94340640  -2.08793310  -0.11015088
H   -2.23011657  -0.00034537   0.24176427
H   -1.05185571   2.06665033  -0.49477663
11
Energy: -6291.6972383433
C    0.88137615   1.53364472   0.08789115
C   -0.44468658   1.28464060  -0.05405164
C   -1.13770355   0.03379402   0.21387608
C   -0.45482675  -1.12109721   0.02215623
O    0.86453805  -1.20196593  -0.18350195
H    1.14570486  -0.26105238  -0.33578697
H    1.39559687   2.32145012  -0.47355929
H    1.49566909   0.94566316   0.78769568
H   -0.93573449  -2.08885639  -0.10084979
H   -2.22868629   0.00014743   0.24684900
H   -1.05291857   2.06510735  -0.51404442
11
Energy: -6291.7213165802
C    0.87764600   1.57061520   0.11941318
C   -0.44876013   1.29933076  -0.04949520
C   -1.13417758   0.04257411   0.20851191
C   -0.46112428  -1.12965473   0.01806034
O    0.85682707  -1.24369205  -0.19414773
H    1.16088326  -0.28602431  -0.33465862
H    1.38961551   2.35122587  -0.45873315
H    1.50270556   0.93432668   0.76168546
H   -0.93311673  -2.09357120  -0.08722111
H   -2.22587703   0.00129397   0.25366410
H   -1.05633080   2.06507448  -0.54041685
11
Energy: -6291.7331713034
C    0.87730546   1.56935667   0.11856464
C   -0.44802073   1.30014211  -0.04928945
C   -1.13335351   0.04173198   0.20802821
C   -0.46088021  -1.12886714   0.01822339
O    0.85757372  -1.24037290  -0.19486252
H    1.16091153  -0.28938653  -0.33443663
H    1.38884845   2.35195642  -0.45714138
H    1.50277410   0.93500347   0.76137945
H   -0.93478302  -2.09485321  -0.08660422
H   -2.22556105   0.00151011   0.25387365
H   -1.05652351   2.06527568  -0.54107175
11
Energy: -6291.7493386205
C    0.87678133   1.56702434   0.11688327
C   -0.44677766   1.30164012  -0.04893214
C   -1.13187258   0.04033659   0.20708960
C   -0.46043312  -1.12767774   0.01847518
O    0.85886994  -1.23448833  -0.19621001
H    1.16115567  -0.29550406  -0.33408098
H    1.38730655   2.35343196  -0.45393835
H    1.50293171   0.93630399   0.76077289
H   -0.93793480  -2.09715632  -0.08533156
H   -2.22486596   0.00193379   0.25430135
H   -1.05686906   2.06564809  -0.54236368
11
Energy: -6291.7606580282
C    0.87636831   1.56394401   0.11436713