11
Properties=species:S:1:pos:R:3:forces:R:3 energy=-6291.260993554764 pbc="F F F"
C        0.95337364       1.32032190      -0.03996740       0.39330676      -0.52051057      -0.17946248
C       -0.46543939       1.23432431      -0.04792728      -0.47875762      -0.11138247       0.11003084
C       -1.14290110       0.04160154       0.21818172       0.00013083       0.38524580      -0.06459753
C       -0.41982264      -1.15558703       0.03360541       0.55968834      -0.23472372      -0.08745106
O        0.84182358      -1.20380436      -0.12620844      -0.48814310      -0.50962413       0.23490779
H        1.16449446       0.07316968      -0.39004449       0.15396155       0.80034329      -0.17044683
H        1.40691710       2.20579769      -0.49729005       0.00655955      -0.03775977      -0.02713430
H        1.46248652       1.01705135       0.88839501      -0.07233379       0.17621971       0.11642651
H       -0.98584939      -2.09280307      -0.12439399      -0.04324242       0.00770367      -0.01605434
H       -2.23282715      -0.00232100       0.22570685      -0.00330107       0.00848292      -0.02367634
H       -1.05398906       2.07358259      -0.44325358      -0.02655791       0.03652228       0.10659828
11
Properties=species:S:1:pos:R:3:forces:R:3 energy=-6291.284878937472 pbc="F F F"
C        0.95730671       1.31511679      -0.04176202       0.25077869      -0.59467279      -0.27755750
C       -0.47022697       1.23321048      -0.04682698      -0.22793282      -0.02753901       0.08503950
C       -1.14289979       0.04545400       0.21753575      -0.00606515       0.16342211      -0.06613236
C       -0.41422575      -1.15793426       0.03273090       0.09918427      -0.14880924       0.00001121
O        0.83694215      -1.20890060      -0.12385936      -0.15276807      -0.65088099       0.22115126
H        1.16603407       0.08117311      -0.39174896       0.22173179       1.06337501      -0.22175367
H        1.40698269       2.20542009      -0.49756139       0.00208314      -0.10579173      -0.02136133
H        1.46176318       1.01881354       0.88955927      -0.06342131       0.21373377       0.19814581
H       -0.98628182      -2.09272603      -0.12455454      -0.06226437       0.00495359      -0.01942705
H       -2.23286016      -0.00223617       0.22547008      -0.00070059       0.00213371      -0.03485795
H       -1.05425464       2.07394781      -0.44218760      -0.05937528       0.08052443       0.13580546
11
Properties=species:S:1:pos:R:3:forces:R:3 energy=-6291.333862567974 pbc="F F F"
C        0.96360899       1.30388142      -0.04643470       0.12201076      -0.62140098      -0.36434518
C       -0.47704664       1.23190468      -0.04489992       0.05073948       0.05478410       0.04170275
C       -1.14296542       0.05072143       0.21622587      -0.03768331      -0.06428150      -0.07600162
C       -0.40809597      -1.16168603       0.03194397      -0.31566556      -0.10729203       0.09071846
O        0.83086600      -1.22065718      -0.11930904       0.14572854      -0.83236651       0.23240409
H        1.16986227       0.10009010      -0.39572577       0.34394298       1.41364850      -0.32655980
H        1.40706468       2.20391488      -0.49804091      -0.01041799      -0.24404272      -0.01316039
H        1.46041354       1.02275396       0.89278984      -0.07628439       0.28469310       0.28705585
H       -0.98735689      -2.09260213      -0.12491303      -0.12467383      -0.01779247      -0.02051872
H       -2.23289759      -0.00213632       0.22487301      -0.00269304      -0.00384299      -0.04889516
H       -1.05514772       2.07516355      -0.43973221      -0.09385839       0.13831248       0.19655825
11
Properties=species:S:1:pos:R:3:forces:R:3 energy=-6291.430595214288 pbc="F F F"
C        0.97068930       1.28659733      -0.05484540       0.10858295      -0.41789201      -0.27758931
C       -0.48259871       1.23136177      -0.04268424       0.12732803       0.01947445      -0.00437839
C       -1.14345944       0.05472018       0.21416977      -0.04448623      -0.08937070      -0.11672726
C       -0.40622260      -1.16630099       0.03228280      -0.15257075      -0.20055394       0.09955245
O        0.82707948      -1.24084533      -0.11253133      -0.02131626      -0.92462545       0.30656410
H        1.17727747       0.13343182      -0.40307407       0.50330692       1.55758726      -0.50065750
H        1.40701822       2.19974342      -0.49862438      -0.02040923      -0.41837765      -0.01921236
H        1.45831839       1.02958629       0.89901057      -0.13853934       0.37519623       0.29274487
H       -0.98976345      -2.09269598      -0.12547250      -0.24330222      -0.07149862      -0.01263442
H       -2.23296235      -0.00209081       0.22377129      -0.02369115      -0.00362936      -0.05691565
H       -1.05703482       2.07785413      -0.43525367      -0.09390852       0.17413966       0.28824167
11
Properties=species:S:1:pos:R:3:forces:R:3 energy=-6291.57153377274 pbc="F F F"
C        0.97838522       1.26594749      -0.06579888       0.09560381       0.19518398       0.10405803
C       -0.48604343       1.23111056      -0.04074350      -0.00031400      -0.11073498      -0.05797535
C       -1.14444634       0.05722962       0.21089635       0.03456841       0.03388777      -0.19335473
C       -0.40639641      -1.17289922       0.03380131       0.22395317      -0.37704031       0.06365830
O        0.82341176      -1.27028595      -0.10269433      -0.34990223      -0.86753911       0.38728926
H        1.19008651       0.18242653      -0.41579062       0.71259240       1.16328364      -0.78947073
H        1.40672761       2.19088905      -0.49938370       0.00114008      -0.53199495      -0.06514707
H        1.45474394       1.04030907       0.90817782      -0.23245802       0.45684850       0.19635392
H       -0.99489523      -2.09365202      -0.12613004      -0.38341774      -0.13036111       0.01019792
H       -2.23330944      -0.00209410       0.22208594      -0.05343930      -0.00130848      -0.05881203
H       -1.05987796       2.08239843      -0.42770929      -0.04741774       0.17020620       0.40251997
11
Properties=species:S:1:pos:R:3:forces:R:3 energy=-6291.711166530829 pbc="F F F"
C        0.98657067       1.24993327      -0.07428653      -0.15985340       1.12905072       0.74021508
C       -0.48914781       1.22942605      -0.03976038      -0.07715947      -0.11574969      -0.14468413
C       -1.14487928       0.05993442       0.20540374       0.12653423      -0.01415158      -0.25809207
C       -0.40360332      -1.18380337       0.03600637       0.00707602      -0.45207558       0.07276216
O        0.81550250      -1.30820825      -0.08874033      -0.15056051      -0.67200464       0.37893725
H        1.21099970       0.24184255      -0.43763307       0.97049415       0.08025137      -1.18511478
H        1.40648108       2.17591358      -0.50092510       0.08348649      -0.40380977      -0.16394476
H        1.44846539       1.05597639       0.91901438      -0.29047987       0.48378823       0.07075496
H       -1.00456356      -2.09622935      -0.12658752      -0.49192959      -0.15972100       0.04565679
H       -2.23432563      -0.00211428       0.21979454      -0.03627917      -0.00284281      -0.06174969
H       -1.06306130       2.08872997      -0.41561804       0.01944291       0.12791482       0.50505160
11
Properties=species:S:1:pos:R:3:forces:R:3 energy=-6291.844714738865 pbc="F F F"
C        0.99177837       1.25077109      -0.07192699      -0.51599227       1.22003507       1.06253131
C       -0.49298398       1.22634651      -0.04082989       0.04840936       0.08880758      -0.21464438
C       -1.14355977       0.06217759       0.19697423       0.10476735      -0.33601742      -0.26140101
C       -0.40099396      -1.19972349       0.03897375      -0.48703172      -0.33308608       0.09444321
O        0.80635048      -1.35141541      -0.07106324       0.28169820      -0.39896098       0.31879793
H        1.24293049       0.29640096      -0.47329917       1.04220684      -0.70854025      -1.29888434
H        1.40738690       2.15698121      -0.50452683       0.22404368       0.13699967      -0.29576044
H        1.43889106       1.07661174       0.92972301      -0.24700184       0.43078072       0.05672158
H       -1.01990978      -2.10070638      -0.12638254      -0.55032201      -0.17243746       0.07446194
H       -2.23573024      -0.00217085       0.21689821       0.05617707      -0.00419115      -0.07457933
H       -1.06566367       2.09615616      -0.39791395       0.04372737       0.07732373       0.53812560
11
Properties=species:S:1:pos:R:3:forces:R:3 energy=-6291.996512033736 pbc="F F F"
C        0.98953663       1.26790758      -0.05553589      -0.37982698      -0.06850704       0.33988217
C       -0.49578651       1.22476741      -0.04467467       0.11224369       0.12061566      -0.13829289
C       -1.14096541       0.05968445       0.18587760       0.07011290      -0.49142886      -0.24806899
C       -0.40518533      -1.21852424       0.04291257      -0.24794059      -0.21319748       0.04013464
O        0.80189626      -1.39565903      -0.05087309       0.00557753      -0.09329218       0.30912359
H        1.28566280       0.33598936      -0.52283989       0.64524469      -0.22562821      -0.67852984
H        1.41121056       2.14178169      -0.51173982       0.30391743       0.78743874      -0.34100413
H        1.42695745       1.10096801       0.94012242      -0.10403813       0.31177582       0.24564258
H       -1.04111102      -2.10705117      -0.12519820      -0.55094888      -0.18301032       0.08803078
H       -2.23624006      -0.00227804       0.21329007       0.15286986      -0.00999358      -0.09917244
H       -1.06741865       2.10387802      -0.37475440      -0.00650497       0.06558625       0.48193560
11
Properties=species:S:1:pos:R:3:forces:R:3 energy=-6292.082381268822 pbc="F F F"
C        0.98027124       1.28360185      -0.03300364       0.56385719      -0.80028605      -1.22008195
C       -0.49647880       1.22544162      -0.05104642      -0.13003826      -0.39906143       0.09315189
C       -1.13709635       0.04809989       0.17029009       0.15937498      -0.06890799      -0.26621992
C       -0.41393425      -1.24109194       0.04755652       0.25149194      -0.24456993      -0.06112805
O        0.79759005      -1.44119086      -0.02515038      -0.57301121       0.15288475       0.30795947
H        1.33993752       0.37099630      -0.58447241      -0.01240708       0.57218425       0.32469388
H        1.42063386       2.14134171      -0.52520654       0.02401916       0.74866094       0.01738294
H        1.41321320       1.13086439       0.95497468       0.05068720       0.13896871       0.45345217
H       -1.07232073      -2.11672748      -0.12239266      -0.42850252      -0.13570752       0.10609864
H       -2.23390893      -0.00256955       0.20787829       0.18386678      -0.05058242      -0.12828082
H       -1.06927674       2.11273933      -0.34288620      -0.08881446       0.08643633       0.37274082
11
Properties=species:S:1:pos:R:3:forces:R:3 energy=-6292.141367310663 pbc="F F F"
C        0.98287717       1.28242447      -0.03618079       1.15415842      -0.29852421      -1.36265648
C       -0.49988372       1.21776645      -0.05541390       0.07115279      -0.34343646       0.02037143
C       -1.12992959       0.03517774       0.14927532      -0.00196135       0.02889189      -0.19262368
C       -0.41734724      -1.26857213       0.05088110      -0.55627248      -0.14440144      -0.10935926
O        0.78134194      -1.48312101       0.00678206       0.02277273       0.08429200       0.23805289
H        1.39346981       0.41765463      -0.63876787      -0.28771553       0.47434197       0.74163215
H        1.43047548       2.15655826      -0.53818998      -0.34869322       0.36927405       0.40786947
H        1.40065101       1.16340017       0.97917531      -0.03973871       0.05803660      -0.10905385
H       -1.11221160      -2.12915497      -0.11739384      -0.17498459      -0.01638377       0.14198533
H       -2.22775435      -0.00391601       0.19983265       0.19613158      -0.11060500      -0.14117749
H       -1.07297519       2.12332895      -0.30350854      -0.03502135      -0.10217532       0.36520227
11
Properties=species:S:1:pos:R:3:forces:R:3 energy=-6292.188676254958 pbc="F F F"
C        1.01317064       1.27408961      -0.07204645       0.06229365       0.79044558       0.45217500
C       -0.50155386       1.20190634      -0.05925820       0.92005980       0.28523309      -0.30361953
C       -1.12286590       0.02305014       0.12380038      -0.22383614      -0.32944419      -0.08977562
C       -0.43408802      -1.29930432       0.05155433      -0.22933672       0.08455425      -0.12132417
O        0.76576744      -1.52270005       0.04418001      -0.32505196       0.07821845       0.16638705
H        1.43967675       0.47533605      -0.67483484       0.10888440      -0.63081253       0.23724314
H        1.43186913       2.18052113      -0.54128027      -0.38040998       0.34896794       0.36335080
H        1.38723294       1.19707509       1.00056884      -0.12888723      -0.02375745      -1.12714979
H       -1.15599173      -2.14187872      -0.10902542      -0.00827129      -0.04896420       0.14700777
H       -2.21693932      -0.00790725       0.18846060       0.04812755      -0.10986833      -0.12126687
H       -1.07748551       2.13138292      -0.25567105       0.15602392      -0.44564499       0.39761639
11
Properties=species:S:1:pos:R:3:forces:R:3 energy=-6292.207731478713 pbc="F F F"
C        1.01344653       1.27759041      -0.07004381       0.10960423       0.57704801       0.20997795
C       -0.49747901       1.20316961      -0.06060290       0.68729464       0.04209697      -0.22261417
C       -1.12385725       0.02159106       0.12340277      -0.03773348      -0.10048138      -0.12984555
C       -0.43510373      -1.29892984       0.05101700      -0.26732760       0.06658338      -0.10666227
O        0.76432782      -1.52235363       0.04491692      -0.26661746       0.07655388       0.16091796
H        1.44015899       0.47254224      -0.67378411       0.05418933      -0.48423773       0.31783037
H        1.43018434       2.18206668      -0.53967102      -0.34212398       0.39483589       0.33534824
H        1.38666211       1.19696988       0.99557680      -0.07795172      -0.02056372      -0.95610667
H       -1.15602836      -2.14209558      -0.10837434      -0.01927723      -0.05758158       0.13929164
H       -2.21672617      -0.00839385       0.18792352       0.01261974      -0.09916946      -0.12271107
H       -1.07679449       2.12940920      -0.25391005       0.14692445      -0.39612633       0.37520655
11
Properties=species:S:1:pos:R:3:forces:R:3 energy=-6292.232519252404 pbc="F F F"
C        1.01424037       1.28361332      -0.06719630       0.16209674       0.23147129      -0.19021953
C       -0.49039072       1.20451608      -0.06292116       0.32588083      -0.27535265      -0.10060275
C       -1.12493727       0.01977776       0.12239864       0.20569232       0.19467040      -0.18489666
C       -0.43734846      -1.29826139       0.05000250      -0.29348111       0.03914748      -0.07952058
O        0.76170511      -1.52166082       0.04638109      -0.18984521       0.07435188       0.15053687
H        1.44086273       0.46761759      -0.67125650      -0.02101588      -0.25362147       0.42941480
H        1.42696514       2.18542291      -0.53655355      -0.27415908       0.47175592       0.28042082
H        1.38576037       1.19677282       0.98632508       0.01742738      -0.01792320      -0.64207084
H       -1.15615728      -2.14257735      -0.10709506      -0.04297976      -0.07243165       0.12554736
H       -2.21647152      -0.00932539       0.18682937      -0.02485464      -0.07431234      -0.12649353
H       -1.07544128       2.12566119      -0.25045761       0.13486053      -0.31872311       0.33849706
11
Properties=species:S:1:pos:R:3:forces:R:3 energy=-6292.253912077846 pbc="F F F"
C        1.01587809       1.29035232      -0.06571697       0.16580805      -0.11477012      -0.58860189
C       -0.48215515       1.20415959      -0.06558060      -0.00089777      -0.43771880       0.00243109
C       -1.12473774       0.01925457       0.12044180       0.31795001       0.33358832      -0.21982187
C       -0.44104029      -1.29743682       0.04863653      -0.24296144       0.01500183      -0.04438844
O        0.75826336      -1.52061380       0.04855625      -0.14791791       0.07148691       0.13616062
H        1.44137639       0.46174085      -0.66653584      -0.06684603      -0.03582877       0.49614829
H        1.42250634       2.19113049      -0.53215064      -0.19399471       0.54887656       0.20302858
H        1.38504807       1.19649339       0.97434149       0.13483447      -0.01792983      -0.26037850
H       -1.15651811      -2.14342350      -0.10522863      -0.07976539      -0.08810288       0.10917441
H       -2.21638390      -0.01058703       0.18512417      -0.01388891      -0.03162679      -0.13339332
H       -1.07345527       2.12047263      -0.24542243       0.12736394      -0.24382284       0.30022721
11
Properties=species:S:1:pos:R:3:forces:R:3 energy=-6292.273946044536 pbc="F F F"
C        1.01835751       1.29572144      -0.06795494       0.10610913      -0.33052545      -0.79651146
C       -0.47474858       1.20118435      -0.06795935      -0.16368649      -0.33611497       0.04419018
C       -1.12263006       0.02080664       0.11734761       0.20119959       0.20571683      -0.21468434
C       -0.44583629      -1.29660373       0.04713798      -0.11714377       0.00072342      -0.00911622
O        0.75426880      -1.51923797       0.05133960      -0.14699941       0.06349126       0.11957496
H        1.44143332       0.45623451      -0.65927852      -0.04761740       0.08356056       0.45789802
H        1.41731701       2.19959579      -0.52695682      -0.12504247       0.58339395       0.11636962
H        1.38522465       1.19613318       0.96197729       0.23016701      -0.01502628       0.05994183
H       -1.15732656      -2.14471930      -0.10288679      -0.12204957      -0.09625538       0.09470641
H       -2.21638926      -0.01191430       0.18278057       0.06156742       0.02493157      -0.14163515
H       -1.07089550       2.11432435      -0.23907015       0.12331243      -0.18458708       0.26981193
11
Properties=species:S:1:pos:R:3:forces:R:3 energy=-6292.2947952435825 pbc="F F F"
C        1.02125327       1.29848445      -0.07495553       0.01767744      -0.33685561      -0.70208634
C       -0.46910739       1.19640245      -0.06982359      -0.15066646      -0.06644302       0.02727221
C       -1.11947357       0.02349134       0.11321886      -0.06305475      -0.10365508      -0.17823109
C       -0.45088605      -1.29584943       0.04573221      -0.00009546      -0.01229415       0.01740123
O        0.74975343      -1.51760225       0.05459319      -0.13318357       0.04462937       0.10330226
H        1.44118645       0.45180193      -0.64988035       0.04169574       0.06817314       0.30040325
H        1.41186380       2.21086679      -0.52155387      -0.08467515       0.53706684       0.03853588
H        1.38682449       1.19571491       0.95122476       0.26263531       0.00012568       0.20843046
H       -1.15881824      -2.14648811      -0.10018624      -0.15534182      -0.08967267       0.08542702
H       -2.21600866      -0.01295277       0.17978465       0.15477486       0.08247776      -0.14674921
H       -1.06781974       2.10763533      -0.23166400       0.11025671      -0.12405887       0.24677420
11
Properties=species:S:1:pos:R:3:forces:R:3 energy=-6292.312883630976 pbc="F F F"
C        1.02397905       1.29869220      -0.08600597      -0.05448719      -0.12131410      -0.32937455
C       -0.46504965       1.19164922      -0.07131689      -0.05680634       0.14024997      -0.01003712
C       -1.11705933       0.02520631       0.10829717      -0.27470067      -0.36904052      -0.13991736
C       -0.45543148      -1.29525372       0.04458475       0.02108889      -0.04470292       0.02839094
O        0.74478856      -1.51582817       0.05822030      -0.05440324       0.01499769       0.08983614
H        1.44124637       0.44827382      -0.63938965       0.18016446      -0.06538042       0.05426672
H        1.40638306       2.22464416      -0.51643051      -0.07737176       0.39123389      -0.01624806
H        1.39004118       1.19533933       0.94295760       0.22193054       0.02989565       0.16132550
H       -1.16121170      -2.14868671      -0.09717780      -0.16579376      -0.06712990       0.08213693
H       -2.21461900      -0.01332939       0.17609551       0.18770611       0.12401803      -0.14410380
H       -1.06430562       2.10077589      -0.22332892       0.07293426      -0.03312098       0.22411378
11
Properties=species:S:1:pos:R:3:forces:R:3 energy=-6292.3240441877 pbc="F F F"
C        1.02601436       1.29794875      -0.09847748      -0.07383703       0.20018438       0.13656258
C       -0.46183335       1.18844696      -0.07273784      -0.01609479       0.07454181      -0.01988129
C       -1.11699331       0.02391944       0.10279456      -0.24193075      -0.36121030      -0.13041535
C       -0.45936063      -1.29506044       0.04376977      -0.04947581      -0.11262833       0.02370815
O        0.73990293      -1.51411647       0.06217369       0.06674448      -0.01527564       0.07994906
H        1.44268205       0.44459709      -0.62953182       0.31166752      -0.21858532      -0.19380760
H        1.40085698       2.24004435      -0.51194409      -0.09204468       0.17203391      -0.04602532
H        1.39463829       1.19523058       0.93675444       0.13714981       0.06633528       0.00412584
H       -1.16463736      -2.15118030      -0.09384026      -0.14939686      -0.03898850       0.08264776
H       -2.21192871      -0.01271720       0.17167008       0.10072932       0.13684443      -0.13223515
H       -1.06058355       2.09434838      -0.21410853       0.00695322       0.09668421       0.19566640
11
Properties=species:S:1:pos:R:3:forces:R:3 energy=-6292.32955746868 pbc="F F F"
C        1.02733188       1.29910365      -0.10953433      -0.01301537       0.37475631       0.45246515
C       -0.45880124       1.18598082      -0.07433238      -0.06683440      -0.19406175       0.00931453
C       -1.11921318       0.01923352       0.09611510       0.02736326      -0.09054036      -0.14635680
C       -0.46371782      -1.29593295       0.04318689      -0.08304683      -0.20434576       0.01195116
O        0.73569661      -1.51256618       0.06684273       0.11941627      -0.03552530       0.07028500
H        1.44704733       0.43889242      -0.62160323       0.35563039      -0.21649127      -0.33318123
H        1.39451674       2.25691553      -0.50793729      -0.10936453      -0.05991575      -0.06407684
H        1.40048492       1.19574951       0.93065228       0.05169242       0.10290526      -0.12979046
H       -1.16943994      -2.15401724      -0.08975542      -0.11588353      -0.02481497       0.08258710
H       -2.20831385      -0.01081852       0.16603984      -0.09648837       0.12407852      -0.11492719
H       -1.05683302       2.08889841      -0.20313211      -0.06884570       0.22414171       0.16194830
11
Properties=species:S:1:pos:R:3:forces:R:3 energy=-6292.330792623141 pbc="F F F"
C        1.02731444       1.29960573      -0.10892815      -0.00628021       0.32561485       0.40907152
C       -0.45889078       1.18572083      -0.07431990      -0.06391435      -0.16735306       0.00941942
C       -1.11917653       0.01911222       0.09591902       0.01672515      -0.10000626      -0.14373308
C       -0.46382908      -1.29620672       0.04320290      -0.06391267      -0.19744769       0.01251694
O        0.73585659      -1.51261378       0.06693690       0.10064757      -0.03548992       0.06992211
H        1.44752378       0.43860237      -0.62204961       0.33797456      -0.18134931      -0.31003154
H        1.39437022       2.25683526      -0.50802314      -0.10769218      -0.04958533      -0.06420049
H        1.40055417       1.19588738       0.93047839       0.05740913       0.10209453      -0.11156925
H       -1.16959519      -2.15405048      -0.08964478      -0.11625293      -0.02909843       0.08205190
H       -2.20844312      -0.01065229       0.16588586      -0.09114236       0.12281074      -0.11590186
H       -1.05692525       2.08919870      -0.20291514      -0.06292960       0.21000704       0.16267556
11
Properties=species:S:1:pos:R:3:forces:R:3 energy=-6292.332886995468 pbc="F F F"
C        1.02728942       1.30054118      -0.10777505       0.00570607       0.23457963       0.32697206
C       -0.45906629       1.18523829      -0.07429468      -0.05852125      -0.11881402       0.00989472
C       -1.11911869       0.01885453       0.09552908      -0.00230569      -0.11592417      -0.13888078
C       -0.46402414      -1.29674636       0.04323590      -0.03018436      -0.18399789       0.01343246
O        0.73615006      -1.51270932       0.06712549       0.06702428      -0.03585171       0.06928229
H        1.44845453       0.43807200      -0.62291179       0.30487150      -0.11591231      -0.26659897
H        1.39407841       2.25668937      -0.50819575      -0.10457379      -0.03048751      -0.06422674
H        1.40070176       1.19616308       0.93015620       0.06828218       0.10042636      -0.07696492
H       -1.16990757      -2.15412362      -0.08942333      -0.11664705      -0.03720495       0.08106632
H       -2.20869482      -0.01032029       0.16557516      -0.08120093       0.12009016      -0.11773092
H       -1.05710173       2.08978086      -0.20247827      -0.05180289       0.18331371       0.16398063
11
Properties=species:S:1:pos:R:3:forces:R:3 energy=-6292.335267974693 pbc="F F F"
C        1.02727642       1.30177431      -0.10619195       0.02036356       0.11541619       0.21527570
C       -0.45932185       1.18460586      -0.07425548      -0.05157217      -0.05798540       0.01123533
C       -1.11907049       0.01842927       0.09494652      -0.02534694      -0.13233650      -0.13256223
C       -0.46425002      -1.29753889       0.04328800       0.00940013      -0.16469557       0.01426269
O        0.73652596      -1.51285510       0.06741077       0.02600819      -0.03742821       0.06853224
H        1.44980065       0.43740136      -0.62413237       0.26041175      -0.02925108      -0.20827652
H        1.39364138       2.25650723      -0.50845821      -0.10046987      -0.00569789      -0.06368448
H        1.40094847       1.19657870       0.92973787       0.08312584       0.09784399      -0.02976081
H       -1.17038325      -2.15425149      -0.08908884      -0.11635332      -0.04822176       0.07980166
H       -2.20905677      -0.00982121       0.16509917      -0.06810280       0.11553589      -0.12017843
H       -1.05734694       2.09061052      -0.20181161      -0.03679499       0.14706562       0.16558812
11
Properties=species:S:1:pos:R:3:forces:R:3 energy=-6292.337441338007 pbc="F F F"
C        1.02730362       1.30310466      -0.10435582       0.03464242      -0.01270750       0.08743689
C       -0.45965040       1.18392587      -0.07419873      -0.04436645       0.00165171       0.01402795
C       -1.11907554       0.01779367       0.09416891      -0.04631344      -0.14091283      -0.12582948
C       -0.46443536      -1.29856686       0.04336215       0.04300067      -0.14069176       0.01437632
O        0.73691396      -1.51305782       0.06779847      -0.01242088      -0.04124706       0.06789869
H        1.45150976       0.43674189      -0.62562887       0.21014292       0.06619096      -0.14255672
H        1.39305608       2.25633242      -0.50881611      -0.09608470       0.02031089      -0.06185074
H        1.40132935       1.19713972       0.92930450       0.09996952       0.09436394       0.02397761
H       -1.17103370      -2.15445872      -0.08863531      -0.11430750      -0.06078017       0.07851622
H       -2.20951266      -0.00915127       0.16444115      -0.05383473       0.10861584      -0.12289907
H       -1.05763795       2.09163822      -0.20089521      -0.01973457       0.10548462       0.16714438
11
Properties=species:S:1:pos:R:3:forces:R:3 energy=-6292.339229855851 pbc="F F F"
C        1.02740325       1.30427442      -0.10251366       0.04569136      -0.12670870      -0.03830843
C       -0.46004231       1.18331746      -0.07411723      -0.03814268       0.04476703       0.01859537
C       -1.11918053       0.01691601       0.09319617      -0.05867864      -0.13299572      -0.11983757
C       -0.46450891      -1.29979718       0.04346006       0.05841147      -0.11389220       0.01306525
O        0.73723623      -1.51332973       0.06829466      -0.03807140      -0.04810144       0.06761188
H        1.45350372       0.43629192      -0.62728490       0.16079174       0.15537243      -0.07875059
H        1.39232091       2.25621913      -0.50927237      -0.09233643       0.04202320      -0.05790573
H        1.40188895       1.19784930       0.92896647       0.11584694       0.09021062       0.07539672
H       -1.17186700      -2.15477704      -0.08805685      -0.10930537      -0.07305573       0.07753890
H       -2.21003972      -0.00831275       0.16358239      -0.04067218       0.09888393      -0.12545000
H       -1.05794265       2.09279194      -0.19970795      -0.00281832       0.06381066       0.16829582
11
Properties=species:S:1:pos:R:3:forces:R:3 energy=-6292.340814973823 pbc="F F F"
C        1.02759704       1.30503841      -0.10094303       0.05172511      -0.20591747      -0.14206156