11
Properties=species:S:1:pos:R:3:forces:R:3 energy=-6291.257675824116 pbc="F F F"
C        0.94658739       1.33077068      -0.03633514      -0.38122552       0.64017254       0.22921959
C       -0.45740668       1.23650590      -0.04983485       0.44585413       0.13683484      -0.11161125
C       -1.14278679       0.03502843       0.21890637       0.01336131      -0.36686319       0.02030199
C       -0.42986699      -1.15185405       0.03519896      -0.58709424       0.19068312       0.09586881
O        0.84810195      -1.19795846      -0.12929269       0.43580763       0.28572025      -0.21872264
H        1.14132690      -0.09766722      -0.35977702      -0.04782531      -0.70059107       0.11568841
H        1.40500702       2.21422831      -0.49099389      -0.01077047       0.04276360       0.03271586
H        1.47605532       0.98166393       0.86136967       0.05937994      -0.16683460      -0.14520462
H       -0.97679664      -2.09506918      -0.11834058       0.04267191      -0.01551940       0.04275900
H       -2.23239953      -0.00405769       0.23097185       0.00075480      -0.00827326       0.02715778
H       -1.04817252       2.06598176      -0.46331643       0.02997773      -0.03743615      -0.08881218
11
Properties=species:S:1:pos:R:3:forces:R:3 energy=-6291.27820388098 pbc="F F F"
C        0.94277513       1.33717241      -0.03404295      -0.23666548       0.67944738       0.36224974
C       -0.45294814       1.23787424      -0.05095096       0.19017601       0.07033616      -0.09228034
C       -1.14265317       0.03135980       0.21910939      -0.01047411      -0.12288874       0.01628597
C       -0.43573793      -1.14994722       0.03615765      -0.14653102       0.06667973       0.00935139
O        0.85246003      -1.19510126      -0.13147992       0.14313714       0.39146597      -0.20823775
H        1.14084864      -0.10467313      -0.35862014      -0.08738768      -0.92640607       0.14714409
H        1.40489931       2.21465594      -0.49066673       0.00592837       0.12940076       0.01406816
H        1.47664912       0.97999559       0.85991762       0.04468884      -0.18687932      -0.22985165
H       -0.97636992      -2.09522438      -0.11791299       0.04166987      -0.03015288       0.05684179
H       -2.23239198      -0.00414042       0.23124343       0.00198110      -0.00079388       0.03916515
H       -1.04787274       2.06560739      -0.46420455       0.05424644      -0.06949436      -0.11536267
11
Properties=species:S:1:pos:R:3:forces:R:3 energy=-6291.316566366837 pbc="F F F"
C        0.93672463       1.35045426      -0.02797050      -0.08814584       0.71737099       0.53151563
C       -0.44683054       1.23988426      -0.05297685      -0.11671081       0.02629064      -0.06219579
C       -1.14264885       0.02669787       0.21947236      -0.01940406       0.12662157       0.00730687
C       -0.44264362      -1.14749304       0.03712397       0.23220329      -0.03523308      -0.07954744
O        0.85796657      -1.18819693      -0.13575325      -0.09438661       0.43797686      -0.21326844
H        1.13945099      -0.12123214      -0.35595031      -0.13298798      -1.19349495       0.18511750
H        1.40486800       2.21647305      -0.49021658       0.03634114       0.28182988      -0.01192615
H        1.47767816       0.97642565       0.85606672       0.04603637      -0.22350709      -0.32645629
H       -0.97552466      -2.09569779      -0.11689902       0.06392438      -0.04368566       0.08167306
H       -2.23236326      -0.00422367       0.23192134      -0.00119881       0.00823018       0.05691966
H       -1.04700253       2.06450129      -0.46628072       0.07478985      -0.10169048      -0.16971903
11
Properties=species:S:1:pos:R:3:forces:R:3 energy=-6291.38595915802 pbc="F F F"
C        0.93025261       1.37076257      -0.01631516      -0.12854451       0.72913548       0.61584639
C       -0.44268393       1.24199945      -0.05552449      -0.18805218       0.07864598      -0.02018594
C       -1.14287095       0.02397679       0.21988414       0.02580455       0.12500381      -0.01707864
C       -0.44615445      -1.14569462       0.03706724       0.17694908       0.04418192      -0.09523224
O        0.86182322      -1.17688227      -0.14208301      -0.09423600       0.16560851      -0.22164962
H        1.13664429      -0.15003494      -0.35139156      -0.11985403      -1.19464026       0.18059636
H        1.40526305       2.22139070      -0.48995033       0.06357762       0.44454546      -0.01995521
H        1.47914045       0.97060969       0.84879894       0.09274293      -0.27070543      -0.35899296
H       -0.97401945      -2.09663264      -0.11503526       0.12519265      -0.04114930       0.11303555
H       -2.23235137      -0.00420274       0.23319435      -0.00839983       0.01270007       0.07417611
H       -1.04534832       2.06232148      -0.47012586       0.05493023      -0.09284814      -0.25105274
11
Properties=species:S:1:pos:R:3:forces:R:3 energy=-6291.472578024959 pbc="F F F"
C        0.92283090       1.39809802       0.00182525      -0.30721192       0.71625687       0.57405210
C       -0.44128814       1.24488014      -0.05806813      -0.00750126       0.20107100       0.04125017
C       -1.14275026       0.02308073       0.22004257       0.06635252      -0.03690143      -0.05563727
C       -0.44711598      -1.14352717       0.03583312      -0.15037297       0.17829638      -0.05859609
O        0.86412352      -1.16464173      -0.15053333      -0.06745674      -0.67249870      -0.15718643
H        1.13262933      -0.19079836      -0.34504514       0.05666022      -0.57718432       0.06799403
H        1.40640841       2.23133913      -0.48995862       0.05078733       0.53536400       0.02521396
H        1.48160865       0.96201239       0.83779820       0.16381504      -0.30577193      -0.33420410
H       -0.97110951      -2.09798519      -0.11195366       0.20319006      -0.01229665       0.15247021
H       -2.23244503      -0.00402613       0.23526155       0.00167622       0.01105964       0.08992919
H       -1.04317714       2.05920622      -0.47670529      -0.01018803      -0.03718808      -0.34568170
11
Properties=species:S:1:pos:R:3:forces:R:3 energy=-6291.53880614116 pbc="F F F"
C        0.91195123       1.43249244       0.02599992      -0.24840082       0.61393005       0.46427769
C       -0.44013448       1.25022176      -0.05979345       0.05790899       0.27435341       0.10813827
C       -1.14173449       0.02176976       0.21942450       0.02394946       0.01955232      -0.08679398
C       -0.45003723      -1.13913883       0.03392129      -0.27884873       0.02056599      -0.05459816
O        0.86527153      -1.16281950      -0.16028764      -0.28402512      -1.78477074       0.00413986
H        1.12979051      -0.23537656      -0.33840377       0.41026674       0.56158759      -0.13562335
H        1.40813359       2.24761209      -0.48962135      -0.03387990       0.49897925       0.14664111
H        1.48606967       0.95009437       0.82332837       0.17688424      -0.26136565      -0.32941004
H       -0.96571259      -2.09937061      -0.10709567       0.21388197       0.02572680       0.19819627
H       -2.23250640      -0.00371598       0.23835152       0.04228995       0.00769411       0.10240206
H       -1.04136236       2.05589405      -0.48735285      -0.08087124       0.02397602      -0.41753012
11
Properties=species:S:1:pos:R:3:forces:R:3 energy=-6291.616969436383 pbc="F F F"
C        0.89892277       1.47144713       0.05380683       0.12978130       0.32121035       0.33139121
C       -0.43834162       1.25860413      -0.05993715      -0.13997439       0.24095913       0.14565487
C       -1.14050823       0.02084467       0.21773728       0.00046033       0.29552646      -0.10359233
C       -0.45629984      -1.13492135       0.03148922      -0.12365947      -0.35970256      -0.07833385
O        0.86260380      -1.18443568      -0.16901257      -0.36561577      -1.64175611       0.02192518
H        1.13258149      -0.26817927      -0.33419376       0.54313497       0.78151619      -0.17451568
H        1.40924479       2.26875963      -0.48740703      -0.15436079       0.39268646       0.30582780
H        1.49238945       0.93596247       0.80601320       0.09516658      -0.09304356      -0.34972534
H       -0.95806840      -2.10028225      -0.10014092       0.05871333      -0.00829770       0.22855068
H       -2.23201058      -0.00333659       0.24246683       0.07387092       0.01229835       0.10341374
H       -1.04078285       2.05322552      -0.50237622      -0.11900558       0.05876009      -0.43037581
11
Properties=species:S:1:pos:R:3:forces:R:3 energy=-6291.693920612663 pbc="F F F"
C        0.88892822       1.51079072       0.08325321       0.32563325      -0.09309072       0.11287679
C       -0.43859505       1.26936223      -0.05812371      -0.19051652       0.20837537       0.13764385
C       -1.13939845       0.02395388       0.21483704       0.12670966       0.28867701      -0.12903389
C       -0.46358559      -1.13592340       0.02825552       0.04409552      -0.38493870      -0.04391489
O        0.85532618      -1.22578832      -0.17657257      -0.03875353      -0.03997413      -0.15245076
H        1.14233782      -0.28727768      -0.33273248       0.27376510      -0.31394784      -0.01056876
H        1.40818597       2.29303014      -0.48133494      -0.24261420       0.29834066       0.44324838
H        1.49934661       0.92200272       0.78576484       0.00448007       0.11892197      -0.30175263
H       -0.95040551      -2.10121341      -0.09083318      -0.25525252      -0.19141801       0.22629591
H       -2.23057903      -0.00283109       0.24754996       0.07126985       0.03355588       0.09077394
H       -1.04184860       2.05160759      -0.52163770      -0.11982400       0.07543276      -0.37272607
11
Properties=species:S:1:pos:R:3:forces:R:3 energy=-6291.717998849559 pbc="F F F"
C        0.88541516       1.54791655       0.11461721      -0.11503716      -0.41652659      -0.27879160
C       -0.44257956       1.28409636      -0.05363095       0.24605863       0.26698710       0.06697192
C       -1.13581660       0.03268930       0.20943708       0.27075380      -0.28073882      -0.15862169
C       -0.46993433      -1.14445922       0.02419354       0.08226623       0.26008487       0.05282908
O        0.84736187      -1.26751082      -0.18704460       0.25366202       1.09468838      -0.24084559
H        1.15736166      -0.31233765      -0.33149292       0.00247256      -1.11119336       0.07809072
H        1.40238313       2.32290465      -0.46663708      -0.25226326       0.24528859       0.52508440
H        1.50632199       0.91051313       0.75980540       0.02407341       0.22315583      -0.10209612
H       -0.94782152      -2.10588654      -0.07718372      -0.55351124      -0.41953522       0.20551841
H       -2.22776510      -0.00167305       0.25436118       0.10487291       0.07109669       0.06900682
H       -1.04525193       2.05148413      -0.54801101      -0.06322131       0.06598895      -0.21679717
11
Properties=species:S:1:pos:R:3:forces:R:3 energy=-6291.729853572761 pbc="F F F"
C        0.88506717       1.54665656       0.11377387      -0.06634462      -0.35490157      -0.26944081
C       -0.44183524       1.28490400      -0.05342836       0.17189379       0.22583221       0.04991762
C       -1.13499757       0.03184007       0.20895725       0.21713382      -0.19016203      -0.14770221
C       -0.46968547      -1.14367246       0.02435335       0.06800658       0.14158431       0.03043472
O        0.84812920      -1.26419939      -0.18777315       0.18962722       0.85331531      -0.21143241
H        1.15736914      -0.31569901      -0.33125670       0.05891811      -0.91286287       0.04989484
H        1.40162004       2.32364664      -0.46504870      -0.25008100       0.24525769       0.52155396
H        1.50639481       0.91118818       0.75949656       0.02960649       0.20353048      -0.09861643
H       -0.94949589      -2.10715564      -0.07656203      -0.48989537      -0.33538794       0.21306354
H       -2.22744786      -0.00145798       0.25456993       0.12163806       0.06720601       0.07034654
H       -1.04544318       2.05168374      -0.54866682      -0.05038795       0.05591756      -0.20765412
11
Properties=species:S:1:pos:R:3:forces:R:3 energy=-6291.746020889886 pbc="F F F"
C        0.88452925       1.54432041       0.11210219       0.01326171      -0.24671143      -0.24994073
C       -0.44058309       1.28639583      -0.05307694       0.04493637       0.15187481       0.01793619
C       -1.13352495       0.03043162       0.20802510       0.12682298      -0.04009610      -0.12841668
C       -0.46923114      -1.14248479       0.02460027       0.04307995      -0.04847554      -0.00689807
O        0.84946212      -1.25832867      -0.18914504       0.06541139       0.38961856      -0.15444077
H        1.15757545      -0.32181637      -0.33087509       0.16768586      -0.52864347      -0.00437705
H        1.40008616       2.32514520      -0.46185250      -0.24289388       0.24839155       0.51095628
H        1.50656064       0.91248513       0.75888456       0.04053201       0.16662863      -0.09132405
H       -0.95266224      -2.10943388      -0.07528080      -0.37834082      -0.19242948       0.22478054
H       -2.22675032      -0.00103678       0.25499609       0.14747529       0.06036251       0.07256311
H       -1.04578598       2.05205281      -0.54996044      -0.02788104       0.03885927      -0.19044489
11
Properties=species:S:1:pos:R:3:forces:R:3 energy=-6291.7573402975995 pbc="F F F"
C        0.88409812       1.54123206       0.10959895       0.08785755      -0.12019669      -0.21876910
C       -0.43927660       1.28834534      -0.05268900      -0.09214067       0.06045615      -0.02465554
C       -1.13169282       0.02900381       0.20667302       0.03319507       0.10977636      -0.10599023
C       -0.46865011      -1.14160959       0.02479493       0.00746465      -0.22640817      -0.04524879
O        0.85092312      -1.25148818      -0.19099686      -0.09694993      -0.22264073      -0.07911133
H        1.15843117      -0.32943436      -0.33054913       0.30902357      -0.01921849      -0.07554941
H        1.39773509       2.32748644      -0.45693423      -0.22518805       0.26105723       0.48646845
H        1.50687184       0.91431822       0.75796884       0.05646483       0.11679528      -0.07950965
H       -0.95702375      -2.11225321      -0.07322950      -0.24605092      -0.03296268       0.23508886
H       -2.22553325      -0.00041649       0.25566958       0.16799137       0.05229374       0.07480134
H       -1.04620590       2.05254024      -0.55188568      -0.00161105       0.02046983      -0.16709631
11
Properties=species:S:1:pos:R:3:forces:R:3 energy=-6291.762404730032 pbc="F F F"
C        0.88411366       1.53790044       0.10634116       0.11083111      -0.01454757      -0.17578283
C       -0.43852398       1.29037760      -0.05245310      -0.17992997      -0.02626324      -0.07023229
C       -1.12989143       0.02822301       0.20496931      -0.02086693       0.18539396      -0.08768695
C       -0.46809289      -1.14186187       0.02476229      -0.04461566      -0.29961317      -0.06727939
O        0.85179270      -1.24635438      -0.19302687      -0.22985769      -0.77526864      -0.01327537
H        1.16062075      -0.33637883      -0.33060279       0.42382520       0.43108850      -0.13713856
H        1.39458478       2.33079266      -0.45027328      -0.19184961       0.28968025       0.44182257
H        1.50741128       0.91650447       0.75677949       0.07521508       0.06225234      -0.06325370
H       -0.96207929      -2.11494202      -0.07030350      -0.12911948       0.09370544       0.23818781
H       -2.22366625       0.00038197       0.25661930       0.16614959       0.04522920       0.07591611
H       -1.04659124       2.05307295      -0.55438592       0.02025817       0.00777055      -0.14082030
11
Properties=species:S:1:pos:R:3:forces:R:3 energy=-6291.7689231609775 pbc="F F F"
C        0.88459431       1.53484073       0.10266899       0.07140344       0.04736864      -0.12586279
C       -0.43860425       1.29209605      -0.05253651      -0.19084957      -0.09128075      -0.11141687
C       -1.12835805       0.02830092       0.20306675      -0.02337043       0.16683213      -0.07666090
C       -0.46777925      -1.14335049       0.02444962      -0.10650372      -0.25381577      -0.06744872
O        0.85160746      -1.24499837      -0.19490979      -0.26293702      -1.03918087       0.01337030
H        1.16437596      -0.34081369      -0.33122852       0.44798912       0.61814834      -0.16090344
H        1.39094169       2.33498801      -0.44241806      -0.14717281       0.33038710       0.38209975
H        1.50821349       0.91873422       0.75544273       0.09159130       0.01355272      -0.04581818
H       -0.96717296      -2.11696738      -0.06666717      -0.05178982       0.16389065       0.23286072
H       -2.22128635       0.00129102       0.25779371       0.13878324       0.04027788       0.07532709
H       -1.04685274       2.05358511      -0.55722908       0.03292345       0.00320588      -0.11507753
11
Properties=species:S:1:pos:R:3:forces:R:3 energy=-6291.781730407072 pbc="F F F"
C        0.88531385       1.53227735       0.09885822      -0.00874478       0.06640308      -0.07321377
C       -0.43944347       1.29327581      -0.05305934      -0.13356827      -0.12860243      -0.14576670
C       -1.12707192       0.02904149       0.20104636       0.00871994       0.08013481      -0.07131778
C       -0.46792499      -1.14571027       0.02389716      -0.15713255      -0.12973966      -0.05144094
O        0.85038408      -1.24795415      -0.19655068      -0.17918107      -0.93592932      -0.00683813
H        1.16955601      -0.34232088      -0.33243831       0.35938328       0.47518482      -0.13890623
H        1.38707146       2.34009156      -0.43381281      -0.09971281       0.37343595       0.31685341
H        1.50930355       0.92079546       0.75405551       0.10022393      -0.02253353      -0.03174239
H       -0.97196538      -2.11813158      -0.06245867      -0.01908139       0.17919510       0.22094131
H       -2.21858670       0.00227104       0.25915340       0.09285990       0.03720085       0.07310757
H       -1.04695578       2.05405894      -0.56025039       0.03638375       0.00454746      -0.09122050
11
Properties=species:S:1:pos:R:3:forces:R:3 energy=-6291.796776552901 pbc="F F F"
C        0.88592432       1.53025219       0.09511775      -0.09087263       0.05867798      -0.02118302
C       -0.44076576       1.29379170      -0.05414865      -0.03674810      -0.13771958      -0.17378563
C       -1.12587739       0.03004817       0.19892528       0.04564600      -0.02990412      -0.06824283
C       -0.46872317      -1.14838481       0.02318158      -0.16506153       0.01415895      -0.03016485
O        0.84852243      -1.25458727      -0.19805651      -0.02441993      -0.55118231      -0.05762612
H        1.17574359      -0.34166025      -0.33411677       0.18713086       0.08855650      -0.08513662
H        1.38316498       2.34626996      -0.42472307      -0.06011107       0.40497427       0.25728883
H        1.51071005       0.92255492       0.75267228       0.09616424      -0.04237465      -0.02630702
H       -0.97635957      -2.11841869      -0.05773315      -0.02477546       0.15176063       0.20514091
H       -2.21576284       0.00331097       0.26068746       0.03992631       0.03512073       0.06967953
H       -1.04689407       2.05450469      -0.56335680       0.03340609       0.00708750      -0.06925436
11
Properties=species:S:1:pos:R:3:forces:R:3 energy=-6291.808697799972 pbc="F F F"
C        0.88598934       1.52859553       0.09128896      -0.12959040       0.05177398       0.03151537
C       -0.44229292       1.29348505      -0.05625851       0.07027626      -0.11726100      -0.19849037
C       -1.12442389       0.03086730       0.19642038       0.05434323      -0.11929140      -0.06395892
C       -0.47049302      -1.15094856       0.02229412      -0.08809115       0.12357633      -0.01487972
O        0.84653446      -1.26442540      -0.19988930       0.12883563      -0.01447021      -0.11516376
H        1.18297994      -0.34048062      -0.33628374      -0.02629067      -0.41613498      -0.01907355
H        1.37894079       2.35479014      -0.41419719      -0.03988421       0.40531487       0.21246314
H        1.51267323       0.92404529       0.75114674       0.07208212      -0.04406949      -0.03712149
H       -0.98085686      -2.11780221      -0.05183734      -0.05839647       0.09273799       0.18659248
H       -2.21273025       0.00454895       0.26261973      -0.01059322       0.03247862       0.06516806
H       -1.04663471       2.05498805      -0.56684317       0.02778136       0.00428078      -0.04672715
11
Properties=species:S:1:pos:R:3:forces:R:3 energy=-6291.817345466709 pbc="F F F"
C        0.88507385       1.52734513       0.08773256      -0.07358109       0.09147938       0.07706531
C       -0.44327508       1.29229442      -0.05985052       0.13236276      -0.07444534      -0.21672182
C       -1.12257240       0.03077709       0.19345413       0.00965589      -0.12803425      -0.05866630
C       -0.47291325      -1.15255504       0.02130205       0.07361059       0.12795570      -0.01638062
O        0.84553840      -1.27428540      -0.20257661       0.16785598       0.38133109      -0.14108763
H        1.18995309      -0.34245820      -0.33857565      -0.18028107      -0.77090265       0.02248635
H        1.37445261       2.36629938      -0.40215840      -0.05403653       0.35013276       0.19786468
H        1.51516400       0.92518916       0.74935407       0.02748507      -0.03063669      -0.06906569
H       -0.98575570      -2.11648996      -0.04458304      -0.08637043       0.03510545       0.16928331
H       -2.20980476       0.00602150       0.26502759      -0.04184761       0.02683589       0.06044999
H       -1.04616758       2.05549948      -0.57065185       0.02580406      -0.01014369      -0.02499201
11
Properties=species:S:1:pos:R:3:forces:R:3 energy=-6291.830773340996 pbc="F F F"
C        0.88358651       1.52682433       0.08481035       0.04382308       0.18404462       0.10989641
C       -0.44320802       1.29052730      -0.06511983       0.13792065      -0.02691859      -0.21834990
C       -1.12065939       0.02968010       0.19004941      -0.04996088      -0.06366551      -0.06032110
C       -0.47473534      -1.15314211       0.02018883       0.21706597       0.04439128      -0.02401468
O        0.84587097      -1.28106772      -0.20635314       0.07830006       0.43532209      -0.12339029
H        1.19545316      -0.35048648      -0.34067271      -0.21150116      -0.80654157       0.02018398
H        1.36957428       2.38047388      -0.38865666      -0.09241368       0.25149801       0.20646734
H        1.51785160       0.92608301       0.74703194      -0.02235296      -0.01388443      -0.11188842
H       -0.99129591      -2.11491171      -0.03605334      -0.07410101       0.00833502       0.15492470
H       -2.20723140       0.00769372       0.26789231      -0.05442513       0.01649874       0.05582875
H       -1.04550105       2.05592709      -0.57462745       0.02842996      -0.03059496      -0.00915533
11
Properties=species:S:1:pos:R:3:forces:R:3 energy=-6291.85093169108 pbc="F F F"
C        0.88251057       1.52799273       0.08291438       0.12697854       0.28032038       0.12796025
C       -0.44187818       1.28852552      -0.07235357       0.11999763       0.01215327      -0.18700111
C       -1.11921686       0.02800737       0.18611513      -0.05329117       0.01584898      -0.08021736
C       -0.47455702      -1.15331864       0.01886315       0.21127437      -0.04616146      -0.01428303
O        0.84691845      -1.28381720      -0.21123439      -0.09731466       0.05512474      -0.06588796
H        1.19897902      -0.36584793      -0.34257079      -0.08948673      -0.44420127      -0.03278713
H        1.36388236       2.39685645      -0.37335477      -0.12550033       0.15238714       0.21483099
H        1.52031636       0.92684367       0.74370064      -0.05639387      -0.00335619      -0.14756882
H       -0.99747753      -2.11326776      -0.02616208      -0.00852722       0.01769577       0.14179919
H       -2.20517387       0.00950579       0.27124909      -0.05740590       0.00155297       0.05009100
H       -1.04457861       2.05607160      -0.57866013       0.03053360      -0.04294593      -0.00676897
11
Properties=species:S:1:pos:R:3:forces:R:3 energy=-6291.867688177863 pbc="F F F"
C        0.88302108       1.53264333       0.08262172       0.05951980       0.27970116       0.13012605
C       -0.43906240       1.28668634      -0.08187370       0.12627213       0.03643315      -0.10726475
C       -1.11844575       0.02654137       0.18120476       0.04938295       0.03997293      -0.12150231
C       -0.47175022      -1.15406868       0.01736722      -0.03438571      -0.05166169       0.03408184
O        0.84674884      -1.28586504      -0.21690801      -0.24151529      -0.60387062       0.00343505
H        1.20137118      -0.38665081      -0.34486618       0.14415908       0.18700781      -0.11923845
H        1.35666074       2.41504278      -0.35546582      -0.11076920       0.12106770       0.19088437
H        1.52206530       0.92755826       0.73855159      -0.05236251      -0.00266856      -0.15257799
H       -1.00373025      -2.11141287      -0.01456206       0.08194705       0.03618670       0.12754031
H       -2.20384245       0.01132693       0.27521028      -0.04604898      -0.01345274       0.03888245
H       -1.04328139       2.05568079      -0.58275420       0.02472299      -0.03029263      -0.02421066
11
Properties=species:S:1:pos:R:3:forces:R:3 energy=-6291.885016362751 pbc="F F F"
C        0.88437847       1.54126326       0.08418704      -0.07864384       0.16085892       0.12209425
C       -0.43445795       1.28537547      -0.09288041       0.10251929       0.04741459      -0.00960784
C       -1.11697361       0.02565246       0.17458343       0.12776012       0.06125673      -0.14804680
C       -0.46944698      -1.15555238       0.01636446      -0.31389382      -0.05021305       0.08520010
O        0.84313408      -1.29651943      -0.22250648      -0.12276276      -0.70841009       0.00150951
H        1.20580916      -0.40468959      -0.34885228       0.20686234       0.33351280      -0.14609113
H        1.34789195       2.43487269      -0.33493579      -0.04949651       0.16324812       0.13584343
H        1.52305906       0.92823147       0.73124930      -0.01858111      -0.00201616      -0.12351285
H       -1.00878494      -2.10905023      -0.00119576       0.10552477       0.01161583       0.11627318
H       -2.20317420       0.01294773       0.27970798       0.02420188      -0.01669369       0.01554656
H       -1.04163739       2.05485957      -0.58717485       0.01740755      -0.00227178      -0.04912351
11
Properties=species:S:1:pos:R:3:forces:R:3 energy=-6291.90713208291 pbc="F F F"
C        0.88446236       1.55244739       0.08771635      -0.09537055       0.04824627       0.10050339
C       -0.42821611       1.28483413      -0.10400289      -0.03081468       0.06399187       0.05048294
C       -1.11344574       0.02575489       0.16559747       0.04341329       0.10651771      -0.12334440
C       -0.47221554      -1.15784080       0.01673968      -0.23639200      -0.09037972       0.06683033
O        0.83755185      -1.31856363      -0.22806065       0.14676102       0.01840388      -0.06076071
H        1.21356835      -0.41728402      -0.35518085      -0.02488948      -0.26531931      -0.08173760
H        1.33835594       2.45726540      -0.31228753       0.00136044       0.19031949       0.09293630
H        1.52374955       0.92886977       0.72198057       0.01896620       0.00420243      -0.07785413
H       -1.01211934      -2.10650862       0.01399859       0.00071558      -0.10134979       0.11584220
H       -2.20211791       0.01429346       0.28444045       0.15632081       0.00529965      -0.01986612
H       -1.03971845       2.05400462      -0.59237219       0.02047848       0.01815338      -0.06299099
11
Properties=species:S:1:pos:R:3:forces:R:3 energy=-6291.922295797007 pbc="F F F"
C        0.88233938       1.56471957       0.09356219       0.00522062       0.08356893       0.03638740
C       -0.42270303       1.28577480      -0.11392920      -0.14164827       0.11490980       0.05693050
C       -1.10892229       0.02832164       0.15378029      -0.05156560      -0.03862410      -0.06425084
C       -0.48044671      -1.16221464       0.01866027       0.26538914       0.04007877      -0.03856265
O        0.83537945      -1.34012630      -0.23500665      -0.01652781       0.41850073      -0.02014766
H        1.22073204      -0.43598554      -0.36338467      -0.15807003      -0.56545748      -0.05144938
H        1.32887551       2.48400510      -0.28754617      -0.01717846       0.09872885       0.10542288
H        1.52487712       0.92960368       0.71093388       0.04725244       0.00733096      -0.03265425
H       -1.01542875      -2.10631845       0.03183488      -0.14700956      -0.26120574       0.12463210
H       -2.19744736       0.01575841       0.28870130       0.19980788       0.05418740      -0.04935822
H       -1.03733052       2.05357187      -0.59901386       0.01421345       0.04620844      -0.06682319
11
Properties=species:S:1:pos:R:3:forces:R:3 energy=-6291.942585791798 pbc="F F F"
C        0.88034188       1.57893101       0.10025165      -0.05573249       0.07648222      -0.02532164