12
Energy:  -156.7462107157
C    0.20578600   0.26689200   0.04392100
C    0.46326500   0.68024700   1.28779400
H    0.93413600  -0.38873600  -0.45098800
H    1.37699400   0.38889800   1.81141700
H   -0.22859200   1.33700300   1.82499600
C   -1.01676600   0.60629000  -0.74071300
H   -1.57099200  -0.30445000  -1.02420400
H   -1.69748500   1.25554300  -0.17067400
H   -0.75757900   1.11924700  -1.68215200
C   -0.87681800  -1.34781600   2.85499200
H   -1.20226500  -1.08219700   3.86094100
H   -0.83258000  -2.29298100   2.31449400
12
Energy:  -156.7462086291
C    0.20569900   0.26676800   0.04404900
C    0.46308900   0.68003400   1.28797900
H    0.93405200  -0.38887900  -0.45082900
H    1.37677400   0.38864000   1.81165200
H   -0.22876300   1.33682800   1.82514100
C   -1.01678200   0.60625800  -0.74065100
H   -1.57102300  -0.30444400  -1.02423600
H   -1.69751700   1.25550300  -0.17062200
H   -0.75750800   1.11926000  -1.68204200
C   -0.87652600  -1.34751600   2.85460700
H   -1.20195800  -1.08173500   3.86051800
H   -0.83243300  -2.29277600   2.31426000
12
Energy:  -156.7462065223
C    0.20561100   0.26664400   0.04417800
C    0.46291200   0.67982100   1.28816300
H    0.93396800  -0.38902100  -0.45066900
H    1.37655300   0.38838100   1.81188700
H   -0.22893400   1.33665200   1.82528500
C   -1.01679800   0.60622600  -0.74059000
H   -1.57105500  -0.30443900  -1.02426800
H   -1.69754800   1.25546200  -0.17057000
H   -0.75743700   1.11927300  -1.68193300
C   -0.87623200  -1.34721700   2.85422100
H   -1.20165000  -1.08127100   3.86009500
H   -0.83228500  -2.29257000   2.31402500
12
Energy:  -156.7462044343
C    0.20552300   0.26652000   0.04430700
C    0.46273500   0.67960800   1.28834700
H    0.93388400  -0.38916400  -0.45051000
H    1.37633200   0.38812200   1.81212100
H   -0.22910500   1.33647600   1.82543000
C   -1.01681400   0.60619300  -0.74052900
H   -1.57108600  -0.30443300  -1.02430000
H   -1.69758000   1.25542100  -0.17051700
H   -0.75736700   1.11928600  -1.68182300
C   -0.87593900  -1.34691700   2.85383600
H   -1.20134300  -1.08080800   3.85967200
H   -0.83213700  -2.29236400   2.31379000
12
Energy:  -156.7462022920
C    0.20543500   0.26639500   0.04443600
C    0.46255800   0.67939300   1.28853300
H    0.93379900  -0.38930800  -0.45034900
H    1.37611000   0.38786200   1.81235800
H   -0.22927700   1.33629900   1.82557600
C   -1.01683000   0.60616100  -0.74046700
H   -1.57111700  -0.30442800  -1.02433200
H   -1.69761200   1.25538000  -0.17046500
H   -0.75729600   1.11929900  -1.68171300
C   -0.87564400  -1.34661500   2.85344800
H   -1.20103500  -1.08034300   3.85924700
H   -0.83198700  -2.29215500   2.31355200
12
Energy:  -156.7462001467
C    0.20534600   0.26626900   0.04456500
C    0.46238000   0.67917900   1.28871800
H    0.93371500  -0.38945100  -0.45018800
H    1.37588700   0.38760100   1.81259400
H   -0.22944900   1.33612100   1.82572200
C   -1.01684600   0.60612800  -0.74040600
H   -1.57114900  -0.30442200  -1.02436300
H   -1.69764400   1.25533900  -0.17041200
H   -0.75722500   1.11931200  -1.68160200
C   -0.87534800  -1.34631200   2.85306100
H   -1.20072700  -1.07987800   3.85882100
H   -0.83183800  -2.29194500   2.31331500
12
Energy:  -156.7461980205
C    0.20525900   0.26614500   0.04469400
C    0.46220200   0.67896300   1.28890300
H    0.93363100  -0.38959400  -0.45002900
H    1.37566500   0.38734000   1.81283100
H   -0.22962100   1.33594400   1.82586800
C   -1.01686300   0.60609600  -0.74034400
H   -1.57118000  -0.30441700  -1.02439500
H   -1.69767600   1.25529800  -0.17036100
H   -0.75715400   1.11932500  -1.68149100
C   -0.87505200  -1.34601000   2.85267500
H   -1.20041900  -1.07941400   3.85839600
H   -0.83168800  -2.29173500   2.31307700
12
Energy:  -156.7461958744
C    0.20517000   0.26601900   0.04482300
C    0.46202400   0.67874700   1.28909000
H    0.93354700  -0.38973800  -0.44986800
H    1.37544200   0.38707800   1.81306800
H   -0.22979300   1.33576600   1.82601500
C   -1.01687900   0.60606300  -0.74028300
H   -1.57121200  -0.30441200  -1.02442700
H   -1.69770900   1.25525700  -0.17030800
H   -0.75708300   1.11933800  -1.68138000
C   -0.87475500  -1.34570600   2.85228700
H   -1.20011100  -1.07894800   3.85797000
H   -0.83153800  -2.29152400   2.31283900
12
Energy:  -156.7461937041
C    0.20508200   0.26589300   0.04495400
C    0.46184500   0.67853100   1.28927600
H    0.93346300  -0.38988200  -0.44970800
H    1.37521900   0.38681600   1.81330500
H   -0.22996500   1.33558700   1.82616200
C   -1.01689500   0.60603000  -0.74022100
H   -1.57124400  -0.30440600  -1.02445900
H   -1.69774100   1.25521500  -0.17025600
H   -0.75701200   1.11935100  -1.68126900
C   -0.87445700  -1.34540100   2.85189800
H   -1.19980300  -1.07848300   3.85754300
H   -0.83138800  -2.29131100   2.31259900
12
Energy:  -156.7461915469
C    0.20499300   0.26576700   0.04508300
C    0.46166700   0.67831500   1.28946200
H    0.93337900  -0.39002600  -0.44954700
H    1.37499600   0.38655400   1.81354200
H   -0.23013800   1.33540900   1.82630900
C   -1.01691100   0.60599700  -0.74015800
H   -1.57127600  -0.30440100  -1.02449100
H   -1.69777400   1.25517400  -0.17020400
H   -0.75694100   1.11936400  -1.68115800
C   -0.87415800  -1.34509600   2.85151000
H   -1.19949500  -1.07801700   3.85711700
H   -0.83123700  -2.29109800   2.31235900
12
Energy:  -156.7461893453
C    0.20490500   0.26564000   0.04521400
C    0.46148700   0.67809700   1.28964900
H    0.93329400  -0.39017000  -0.44938600
H    1.37477100   0.38629000   1.81378000
H   -0.23031200   1.33522900   1.82645600
C   -1.01692700   0.60596400  -0.74009600
H   -1.57130900  -0.30439600  -1.02452300
H   -1.69780600   1.25513300  -0.17015100
H   -0.75686900   1.11937600  -1.68104700
C   -0.87385800  -1.34478900   2.85112100
H   -1.19918600  -1.07755000   3.85668900
H   -0.83108600  -2.29088400   2.31211800
12
Energy:  -156.7461871803
C    0.20481700   0.26551400   0.04534400
C    0.46130800   0.67787900   1.28983600
H    0.93321000  -0.39031400  -0.44922500
H    1.37454800   0.38602700   1.81401800
H   -0.23048500   1.33504900   1.82660400
C   -1.01694300   0.60593000  -0.74003400
H   -1.57134100  -0.30439000  -1.02455500
H   -1.69783900   1.25509100  -0.17009800
H   -0.75679800   1.11938900  -1.68093600
C   -0.87355900  -1.34448300   2.85073200
H   -1.19887900  -1.07708400   3.85626100
H   -0.83093500  -2.29066900   2.31187700
12
Energy:  -156.7461849712
C    0.20472800   0.26538700   0.04547300
C    0.46112800   0.67766000   1.29002500
H    0.93312500  -0.39045900  -0.44906400
H    1.37432300   0.38576300   1.81425600
H   -0.23066000   1.33486900   1.82675100
C   -1.01696000   0.60589700  -0.73997100
H   -1.57137300  -0.30438500  -1.02458700
H   -1.69787100   1.25505000  -0.17004500
H   -0.75672700   1.11940200  -1.68082400
C   -0.87325800  -1.34417400   2.85034200
H   -1.19857000  -1.07661600   3.85583200
H   -0.83078200  -2.29045200   2.31163500
12
Energy:  -156.7461827555
C    0.20463900   0.26526000   0.04560400
C    0.46094700   0.67744100   1.29021200
H    0.93304100  -0.39060400  -0.44890200
H    1.37409700   0.38549800   1.81449500
H   -0.23083400   1.33468800   1.82689900
C   -1.01697600   0.60586400  -0.73990900
H   -1.57140600  -0.30438000  -1.02461900
H   -1.69790200   1.25500800  -0.16999100
H   -0.75665500   1.11941400  -1.68071200
C   -0.87295600  -1.34386600   2.84995200
H   -1.19826100  -1.07614900   3.85540300
H   -0.83063000  -2.29023500   2.31139100
12
Energy:  -156.7461805481
C    0.20455000   0.26513300   0.04573500
C    0.46076600   0.67722100   1.29040100
H    0.93295600  -0.39074900  -0.44874100
H    1.37387200   0.38523400   1.81473400
H   -0.23100800   1.33450600   1.82704800
C   -1.01699300   0.60583100  -0.73984600
H   -1.57143800  -0.30437400  -1.02465000
H   -1.69793400   1.25496600  -0.16993800
H   -0.75658300   1.11942700  -1.68060000
C   -0.87265400  -1.34355700   2.84956200
H   -1.19795300  -1.07568100   3.85497300
H   -0.83047700  -2.29001600   2.31114800
12
Energy:  -156.7461783114
C    0.20446000   0.26500500   0.04586600
C    0.46058400   0.67700100   1.29059000
H    0.93287000  -0.39089400  -0.44857900
H    1.37364700   0.38496800   1.81497300
H   -0.23118300   1.33432500   1.82719700
C   -1.01700900   0.60579700  -0.73978400
H   -1.57147100  -0.30436900  -1.02468200
H   -1.69796600   1.25492400  -0.16988400
H   -0.75651100   1.11943900  -1.68048800
C   -0.87235000  -1.34324700   2.84917000
H   -1.19764300  -1.07521200   3.85454300
H   -0.83032400  -2.28979700   2.31090300
12
Energy:  -156.7461760526
C    0.20437000   0.26487700   0.04599700
C    0.46040200   0.67677900   1.29077900
H    0.93278400  -0.39104000  -0.44841700
H    1.37342000   0.38470200   1.81521300
H   -0.23135900   1.33414200   1.82734600
C   -1.01702500   0.60576400  -0.73972100
H   -1.57150400  -0.30436300  -1.02471500
H   -1.69799800   1.25488200  -0.16983100
H   -0.75643800   1.11945100  -1.68037500
C   -0.87204600  -1.34293500   2.84877800
H   -1.19733400  -1.07474200   3.85411200
H   -0.83017000  -2.28957600   2.31065700
12
Energy:  -156.7461737937
C    0.20428100   0.26474900   0.04612900
C    0.46022000   0.67655700   1.29096900
H    0.93269900  -0.39118500  -0.44825400
H    1.37319400   0.38443600   1.81545300
H   -0.23153400   1.33395900   1.82749600
C   -1.01704200   0.60573000  -0.73965800
H   -1.57153700  -0.30435800  -1.02474700
H   -1.69803000   1.25483900  -0.16977800
H   -0.75636600   1.11946300  -1.68026200
C   -0.87174100  -1.34262300   2.84838600
H   -1.19702500  -1.07427300   3.85368000
H   -0.83001500  -2.28935400   2.31041000
12
Energy:  -156.7461715409
C    0.20419100   0.26462100   0.04626000
C    0.46003800   0.67633400   1.29115900
H    0.93261300  -0.39133100  -0.44809100
H    1.37296800   0.38416900   1.81569300
H   -0.23171100   1.33377500   1.82764600
C   -1.01705900   0.60569600  -0.73959500
H   -1.57156900  -0.30435200  -1.02477900
H   -1.69806300   1.25479700  -0.16972500
H   -0.75629400   1.11947500  -1.68014900
C   -0.87143500  -1.34231000   2.84799400
H   -1.19671500  -1.07380200   3.85324800
H   -0.82986100  -2.28913100   2.31016300
12
Energy:  -156.7461692554
C    0.20410100   0.26449200   0.04639200
C    0.45985500   0.67611100   1.29135000
H    0.93252800  -0.39147800  -0.44792900
H    1.37274100   0.38390200   1.81593400
H   -0.23188700   1.33359100   1.82779600
C   -1.01707500   0.60566200  -0.73953100
H   -1.57160200  -0.30434700  -1.02481200
H   -1.69809500   1.25475500  -0.16967100
H   -0.75622100   1.11948700  -1.68003600
C   -0.87112800  -1.34199700   2.84760100
H   -1.19640600  -1.07333100   3.85281500
H   -0.82970500  -2.28890700   2.30991500
12
Energy:  -156.7461669678
C    0.20401000   0.26436300   0.04652300
C    0.45967100   0.67588800   1.29154000
H    0.93244300  -0.39162500  -0.44776600
H    1.37251300   0.38363300   1.81617600
H   -0.23206400   1.33340600   1.82794700
C   -1.01709200   0.60562800  -0.73946800
H   -1.57163500  -0.30434200  -1.02484400
H   -1.69812800   1.25471200  -0.16961700
H   -0.75614800   1.11949900  -1.67992200
C   -0.87082100  -1.34168200   2.84720700
H   -1.19609600  -1.07285900   3.85238100
H   -0.82955000  -2.28868200   2.30966600
12
Energy:  -156.7461646554
C    0.20392000   0.26423300   0.04665600
C    0.45948700   0.67566300   1.29173200
H    0.93235700  -0.39177100  -0.44760200
H    1.37228600   0.38336500   1.81641800
H   -0.23224100   1.33322100   1.82809800
C   -1.01710900   0.60559400  -0.73940500
H   -1.57166900  -0.30433700  -1.02487600
H   -1.69816100   1.25467000  -0.16956300
H   -0.75607600   1.11951100  -1.67980900
C   -0.87051200  -1.34136700   2.84681300
H   -1.19578500  -1.07238600   3.85194600
H   -0.82939400  -2.28845500   2.30941600
12
Energy:  -156.7461623816
C    0.20383000   0.26410400   0.04678700
C    0.45930300   0.67543900   1.29192300
H    0.93227100  -0.39191700  -0.44744000
H    1.37205800   0.38309700   1.81666000
H   -0.23241800   1.33303600   1.82824900
C   -1.01712600   0.60556000  -0.73934200
H   -1.57170200  -0.30433200  -1.02490800
H   -1.69819300   1.25462700  -0.16950900
H   -0.75600300   1.11952300  -1.67969500
C   -0.87020300  -1.34105100   2.84642000
H   -1.19547600  -1.07191500   3.85151200
H   -0.82923800  -2.28822900   2.30916600
12
Energy:  -156.7461600178
C    0.20373800   0.26397400   0.04692000
C    0.45911800   0.67521200   1.29211600
H    0.93218500  -0.39206500  -0.44727500
H    1.37182900   0.38282600   1.81690300
H   -0.23259700   1.33284900   1.82840100
C   -1.01714200   0.60552600  -0.73927800
H   -1.57173500  -0.30432700  -1.02494000
H   -1.69822600   1.25458400  -0.16945400
H   -0.75593000   1.11953500  -1.67958100
C   -0.86989100  -1.34073300   2.84602400
H   -1.19516500  -1.07144000   3.85107500
H   -0.82908000  -2.28800000   2.30891400
12
Energy:  -156.7461577029
C    0.20364700   0.26384400   0.04705300
C    0.45893300   0.67498600   1.29230800
H    0.93210000  -0.39221200  -0.44711300
H    1.37160100   0.38255700   1.81714500
H   -0.23277500   1.33266300   1.82855300
C   -1.01715900   0.60549100  -0.73921400
H   -1.57176900  -0.30432200  -1.02497300
H   -1.69825800   1.25454100  -0.16940000
H   -0.75585800   1.11954700  -1.67946700
C   -0.86958000  -1.34041500   2.84562900
H   -1.19485500  -1.07096800   3.85064000
H   -0.82892400  -2.28777100   2.30866200
12
Energy:  -156.7461553635
C    0.20355600   0.26371300   0.04718500
C    0.45874800   0.67475900   1.29250200
H    0.93201400  -0.39235900  -0.44694900
H    1.37137200   0.38228600   1.81738800
H   -0.23295300   1.33247600   1.82870600
C   -1.01717600   0.60545600  -0.73915100
H   -1.57180300  -0.30431700  -1.02500500
H   -1.69829100   1.25449800  -0.16934600
H   -0.75578500   1.11955900  -1.67935300
C   -0.86926700  -1.34009600   2.84523400
H   -1.19454500  -1.07049400   3.85020300
H   -0.82876600  -2.28754000   2.30840900
12
Energy:  -156.7461529853
C    0.20346500   0.26358200   0.04731900
C    0.45856100   0.67453100   1.29269500
H    0.93192800  -0.39250700  -0.44678500
H    1.37114200   0.38201500   1.81763200
H   -0.23313300   1.33228800   1.82885800
C   -1.01719300   0.60542200  -0.73908700
H   -1.57183700  -0.30431200  -1.02503700
H   -1.69832400   1.25445500  -0.16929100
H   -0.75571200   1.11957000  -1.67923800
C   -0.86895300  -1.33977600   2.84483700
H   -1.19423400  -1.07001900   3.84976500
H   -0.82860800  -2.28730800   2.30815500
12
Energy:  -156.7461506658
C    0.20337400   0.26345200   0.04745100
C    0.45837600   0.67430400   1.29288900
H    0.93184100  -0.39265400  -0.44662100
H    1.37091300   0.38174500   1.81787500
H   -0.23331100   1.33210000   1.82901100
C   -1.01721000   0.60538700  -0.73902300
H   -1.57187000  -0.30430700  -1.02506900
H   -1.69835600   1.25441200  -0.16923700
H   -0.75563900   1.11958200  -1.67912400
C   -0.86864000  -1.33945700   2.84444200
H   -1.19392400  -1.06954600   3.84932900
H   -0.82845000  -2.28707700   2.30790100
12
Energy:  -156.7461482320
C    0.20328200   0.26332000   0.04758600
C    0.45818800   0.67407400   1.29308400
H    0.93175400  -0.39280300  -0.44645600
H    1.37068200   0.38147100   1.81812000
H   -0.23349100   1.33191000   1.82916500
C   -1.01722700   0.60535200  -0.73895800
H   -1.57190500  -0.30430200  -1.02510200
H   -1.69838900   1.25436900  -0.16918200
H   -0.75556500   1.11959300  -1.67900900
C   -0.86832300  -1.33913400   2.84404300
H   -1.19361200  -1.06906700   3.84888800
H   -0.82829100  -2.28684200   2.30764500
12
Energy:  -156.7461458624
C    0.20319100   0.26318900   0.04772000
C    0.45800100   0.67384600   1.29327700
H    0.93166800  -0.39295100  -0.44629200
H    1.37045200   0.38119900   1.81836400
H   -0.23367100   1.33172200   1.82931900
C   -1.01724400   0.60531600  -0.73889400
H   -1.57193800  -0.30429800  -1.02513400
H   -1.69842100   1.25432600  -0.16912800
H   -0.75549200   1.11960400  -1.67889400
C   -0.86800800  -1.33881300   2.84364800
H   -1.19330200  -1.06859300   3.84845000
H   -0.82813200  -2.28660800   2.30738900
12
Energy:  -156.7461434875
C    0.20309800   0.26305700   0.04785200
C    0.45781400   0.67361600   1.29347300
H    0.93158100  -0.39309900  -0.44612700
H    1.37022200   0.38092700   1.81860900
H   -0.23385100   1.33153300   1.82947300
C   -1.01726100   0.60528100  -0.73882900
H   -1.57197200  -0.30429300  -1.02516700
H   -1.69845500   1.25428300  -0.16907300
H   -0.75541800   1.11961500  -1.67877900
C   -0.86769100  -1.33849000   2.84325000
H   -1.19299100  -1.06811600   3.84801000
H   -0.82797300  -2.28637200   2.30713200
12
Energy:  -156.7461410510
C    0.20300600   0.26292500   0.04798700
C    0.45762600   0.67338400   1.29366900
H    0.93149400  -0.39324800  -0.44596200
H    1.36999000   0.38065300   1.81885500
H   -0.23403200   1.33134100   1.82962800
C   -1.01727700   0.60524500  -0.73876400
H   -1.57200600  -0.30428800  -1.02519900
H   -1.69848800   1.25423900  -0.16901800
H   -0.75534500   1.11962600  -1.67866300
C   -0.86737200  -1.33816500   2.84285000
H   -1.19267900  -1.06763800   3.84756800
H   -0.82781300  -2.28613400   2.30687400
12
Energy:  -156.7461386302
C    0.20291400   0.26279300   0.04812100
C    0.45743800   0.67315300   1.29386400
H    0.93140700  -0.39339600  -0.44579800
H    1.36975900   0.38037900   1.81910000
H   -0.23421200   1.33115000   1.82978300
C   -1.01729400   0.60521000  -0.73869900
H   -1.57204100  -0.30428300  -1.02523100
H   -1.69852100   1.25419600  -0.16896400
H   -0.75527200   1.11963700  -1.67854800
C   -0.86705300  -1.33784100   2.84245100
H   -1.19236800  -1.06716200   3.84712700
H   -0.82765300  -2.28589700   2.30661600
12
Energy:  -156.7461361936
C    0.20282200   0.26266000   0.04825500
C    0.45724900   0.67292100   1.29406100
H    0.93131900  -0.39354500  -0.44563300
H    1.36952600   0.38010500   1.81934600
H   -0.23439300   1.33095800   1.82993900
C   -1.01731100   0.60517400  -0.73863400
H   -1.57207600  -0.30427800  -1.02526400
H   -1.69855400   1.25415200  -0.16890900
H   -0.75519800   1.11964800  -1.67843100
C   -0.86673300  -1.33751400   2.84205100
H   -1.19205600  -1.06668400   3.84668500
H   -0.82749200  -2.28565700   2.30635700
12
Energy:  -156.7461337418
C    0.20273000   0.26252800   0.04839000
C    0.45706000   0.67268800   1.29425700
H    0.93123200  -0.39369500  -0.44546700
H    1.36929400   0.37983000   1.81959300
H   -0.23457500   1.33076500   1.83009500
C   -1.01732800   0.60513800  -0.73856900
H   -1.57211000  -0.30427300  -1.02529500
H   -1.69858800   1.25410900  -0.16885300
H   -0.75512400   1.11965900  -1.67831600
C   -0.86641200  -1.33718600   2.84165100
H   -1.19174500  -1.06620500   3.84624100
H   -0.82733100  -2.28541600   2.30609700
12
Energy:  -156.7461313014
C    0.20263700   0.26239400   0.04852500
C    0.45687000   0.67245500   1.29445500
H    0.93114600  -0.39384400  -0.44530100
H    1.36906200   0.37955500   1.81983900
H   -0.23475700   1.33057300   1.83025100
C   -1.01734500   0.60510200  -0.73850300
H   -1.57214400  -0.30426800  -1.02532800
H   -1.69862100   1.25406500  -0.16879900
H   -0.75505000   1.11967000  -1.67819900
C   -0.86609100  -1.33685900   2.84125000
H   -1.19143300  -1.06572700   3.84579800
H   -0.82716900  -2.28517500   2.30583600
12
Energy:  -156.7461287939
C    0.20254400   0.26226000   0.04866100
C    0.45668000   0.67222000   1.29465300
H    0.93105800  -0.39399500  -0.44513500
H    1.36882800   0.37927800   1.82008700
H   -0.23494100   1.33037900   1.83040800
C   -1.01736300   0.60506700  -0.73843800
H   -1.57217900  -0.30426300  -1.02536000
H   -1.69865500   1.25402100  -0.16874400
H   -0.75497600   1.11968000  -1.67808200
C   -0.86576700  -1.33652800   2.84084800
H   -1.19112000  -1.06524600   3.84535300
H   -0.82700600  -2.28493200   2.30557300
12
Energy:  -156.7461263390
C    0.20245100   0.26212700   0.04879600
C    0.45648900   0.67198500   1.29485100
H    0.93097100  -0.39414400  -0.44496900
H    1.36859600   0.37900200   1.82033400
H   -0.23512300   1.33018500   1.83056400
C   -1.01738000   0.60503100  -0.73837200
H   -1.57221400  -0.30425800  -1.02539200
H   -1.69868900   1.25397700  -0.16868900
H   -0.75490200   1.11969100  -1.67796600
C   -0.86544400  -1.33620000   2.84044700
H   -1.19080900  -1.06476700   3.84490900
H   -0.82684400  -2.28468800   2.30531100
12
Energy:  -156.7461238310
C    0.20235800   0.26199200   0.04893200
C    0.45629800   0.67174900   1.29505000
H    0.93088400  -0.39429500  -0.44480200
H    1.36836200   0.37872400   1.82058200
H   -0.23530700   1.32999000   1.83072200
C   -1.01739700   0.60499500  -0.73830600
H   -1.57224800  -0.30425300  -1.02542500
H   -1.69872300   1.25393400  -0.16863400
H   -0.75482700   1.11970100  -1.67784900
C   -0.86511800  -1.33586900   2.84004400
H   -1.19049600  -1.06428500   3.84446200
H   -0.82668100  -2.28444300   2.30504700
12
Energy:  -156.7461213032
C    0.20226400   0.26185700   0.04906800
C    0.45610600   0.67151200   1.29525000
H    0.93079600  -0.39444600  -0.44463500
H    1.36812800   0.37844600   1.82083000
H   -0.23549100   1.32979500   1.83087900
C   -1.01741500   0.60495900  -0.73824000
H   -1.57228300  -0.30424800  -1.02545700
H   -1.69875700   1.25388900  -0.16857900
H   -0.75475200   1.11971100  -1.67773100
C   -0.86479100  -1.33553700   2.83964100
H   -1.19018400  -1.06380200   3.84401500
H   -0.82651700  -2.28419700   2.30478200
12
Energy:  -156.7461188002
C    0.20217000   0.26172300   0.04920400
C    0.45591400   0.67127500   1.29544900
H    0.93070800  -0.39459600  -0.44446800
H    1.36789400   0.37816900   1.82107900
H   -0.23567500   1.32960000   1.83103700
C   -1.01743300   0.60492200  -0.73817500
H   -1.57231800  -0.30424400  -1.02549000
H   -1.69879000   1.25384500  -0.16852300
H   -0.75467700   1.11972200  -1.67761400
C   -0.86446400  -1.33520500   2.83923900
H   -1.18987200  -1.06332100   3.84356900
H   -0.82635300  -2.28395000   2.30451700
12
Energy:  -156.7461162585
C    0.20207700   0.26158700   0.04934000
C    0.45572100   0.67103700   1.29565000
H    0.93061900  -0.39474700  -0.44430100
H    1.36765800   0.37789000   1.82132800
H   -0.23585900   1.32940300   1.83119600
C   -1.01745100   0.60488600  -0.73810900
H   -1.57235400  -0.30423900  -1.02552300
H   -1.69882400   1.25380100  -0.16846800
H   -0.75460100   1.11973200  -1.67749600
C   -0.86413600  -1.33487200   2.83883500
H   -1.18955800  -1.06283700   3.84312100
H   -0.82618900  -2.28370100   2.30425000
12
Energy:  -156.7461137040
C    0.20198300   0.26145200   0.04947700
C    0.45552800   0.67079800   1.29585100
H    0.93053100  -0.39489800  -0.44413400
H    1.36742300   0.37761100   1.82157700
H   -0.23604300   1.32920600   1.83135500
C   -1.01746800   0.60484900  -0.73804300
H   -1.57238900  -0.30423500  -1.02555500
H   -1.69885800   1.25375700  -0.16841300
H   -0.75452500   1.11974300  -1.67737800
C   -0.86380700  -1.33453800   2.83843100
H   -1.18924600  -1.06235400   3.84267200
H   -0.82602400  -2.28345200   2.30398300
12
Energy:  -156.7461111436
C    0.20188800   0.26131700   0.04961400
C    0.45533400   0.67055800   1.29605200
H    0.93044200  -0.39504900  -0.44396600
H    1.36718800   0.37733100   1.82182700
H   -0.23622900   1.32900800   1.83151400
C   -1.01748600   0.60481300  -0.73797600
H   -1.57242500  -0.30423000  -1.02558800
H   -1.69889200   1.25371300  -0.16835700
H   -0.75445000   1.11975300  -1.67725900
C   -0.86347600  -1.33420300   2.83802600
H   -1.18893300  -1.06187000   3.84222300
H   -0.82585900  -2.28320100   2.30371400
12
Energy:  -156.7461085566
C    0.20179300   0.26118100   0.04975100
C    0.45513900   0.67031800   1.29625400
H    0.93035400  -0.39520100  -0.44379900
H    1.36695200   0.37705100   1.82207700
H   -0.23641400   1.32881000   1.83167400
C   -1.01750400   0.60477600  -0.73791000
H   -1.57246000  -0.30422500  -1.02562100
H   -1.69892600   1.25366900  -0.16830100
H   -0.75437400   1.11976300  -1.67714100
C   -0.86314400  -1.33386600   2.83762100
H   -1.18861900  -1.06138500   3.84177200
H   -0.82569300  -2.28294800   2.30344500
12
Energy:  -156.7461059876
C    0.20169900   0.26104400   0.04988800
C    0.45494400   0.67007700   1.29645600
H    0.93026500  -0.39535200  -0.44363100
H    1.36671600   0.37677100   1.82232700
H   -0.23660000   1.32861100   1.83183500
C   -1.01752200   0.60473900  -0.73784300
H   -1.57249500  -0.30422100  -1.02565400
H   -1.69895900   1.25362500  -0.16824500
H   -0.75429900   1.11977200  -1.67702200
C   -0.86281200  -1.33353000   2.83721600
H   -1.18830600  -1.06090100   3.84132200
H   -0.82552800  -2.28269500   2.30317500
12
Energy:  -156.7461033763
C    0.20160300   0.26090800   0.05002600
C    0.45474900   0.66983500   1.29665900
H    0.93017500  -0.39550500  -0.44346200
H    1.36648000   0.37648900   1.82257900
H   -0.23678600   1.32841100   1.83199600
C   -1.01754000   0.60470200  -0.73777600
H   -1.57253000  -0.30421600  -1.02568700
H   -1.69899300   1.25358000  -0.16819000
H   -0.75422300   1.11978200  -1.67690300
C   -0.86247800  -1.33319100   2.83680900
H   -1.18799200  -1.06041400   3.84086900
H   -0.82536100  -2.28244100   2.30290400
12
Energy:  -156.7461007808
C    0.20150800   0.26077100   0.05016300
C    0.45455400   0.66959200   1.29686200
H    0.93008600  -0.39565700  -0.44329400
H    1.36624300   0.37620800   1.82282900
H   -0.23697300   1.32821200   1.83215700
C   -1.01755700   0.60466500  -0.73770900
H   -1.57256600  -0.30421200  -1.02571900
H   -1.69902700   1.25353600  -0.16813400
H   -0.75414700   1.11979200  -1.67678500
C   -0.86214400  -1.33285300   2.83640300
H   -1.18767900  -1.05992800   3.84041800
H   -0.82519500  -2.28218600   2.30263200
12
Energy:  -156.7460981204
C    0.20141200   0.26063300   0.05030200
C    0.45435700   0.66934800   1.29706700
H    0.92999600  -0.39581000  -0.44312500
H    1.36600500   0.37592600   1.82308200
H   -0.23716100   1.32801100   1.83231900
C   -1.01757500   0.60462700  -0.73764200
H   -1.57260200  -0.30420800  -1.02575200
H   -1.69906100   1.25349200  -0.16807700
H   -0.75407000   1.11980200  -1.67666500
C   -0.86180700  -1.33251200   2.83599400
H   -1.18736400  -1.05943900   3.83996300
H   -0.82502700  -2.28192800   2.30235900
12
Energy:  -156.7460955082
C    0.20131700   0.26049600   0.05044000
C    0.45416100   0.66910500   1.29727000
H    0.92990600  -0.39596300  -0.44295700
H    1.36576800   0.37564400   1.82333300
H   -0.23734800   1.32781000   1.83248100
C   -1.01759300   0.60459000  -0.73757500
H   -1.57263700  -0.30420300  -1.02578500
H   -1.69909500   1.25344700  -0.16802100
H   -0.75399400   1.11981100  -1.67654600
C   -0.86147100  -1.33217200   2.83558700
H   -1.18705100  -1.05895300   3.83951100
H   -0.82486000  -2.28167100   2.30208600
12
Energy:  -156.7460928551
C    0.20122100   0.26035800   0.05057800
C    0.45396300   0.66886000   1.29747600
H    0.92981600  -0.39611700  -0.44278700
H    1.36553000   0.37536100   1.82358500
H   -0.23753700   1.32760800   1.83264400
C   -1.01761000   0.60455200  -0.73750700
H   -1.57267300  -0.30419900  -1.02581800
H   -1.69912900   1.25340300  -0.16796500
H   -0.75391800   1.11982100  -1.67642600
C   -0.86113300  -1.33183000   2.83517800
H   -1.18673700  -1.05846400   3.83905600
H   -0.82469100  -2.28141200   2.30181100
12
Energy:  -156.7460901824
C    0.20112500   0.26022000   0.05071700
C    0.45376600   0.66861500   1.29768100
H    0.92972600  -0.39627100  -0.44261800
H    1.36529200   0.37507800   1.82383800
H   -0.23772500   1.32740400   1.83280800
C   -1.01762800   0.60451500  -0.73744000
H   -1.57270900  -0.30419500  -1.02585000
H   -1.69916300   1.25335800  -0.16790900
H   -0.75384100   1.11983000  -1.67630600
C   -0.86079400  -1.33148800   2.83476900
H   -1.18642200  -1.05797500   3.83860000
H   -0.82452300  -2.28115200   2.30153500
12
Energy:  -156.7460875301
C    0.20102900   0.26008100   0.05085600
C    0.45356900   0.66836900   1.29788600
H    0.92963500  -0.39642500  -0.44244800
H    1.36505400   0.37479500   1.82409000
H   -0.23791400   1.32720100   1.83297100
C   -1.01764600   0.60447700  -0.73737300
H   -1.57274600  -0.30419000  -1.02588300
H   -1.69919700   1.25331300  -0.16785300
H   -0.75376400   1.11984000  -1.67618700
C   -0.86045400  -1.33114500   2.83436100
H   -1.18610800  -1.05748600   3.83814400
H   -0.82435400  -2.28089100   2.30126000
12
Energy:  -156.7460847942
C    0.20093200   0.25994200   0.05099600
C    0.45336900   0.66812100   1.29809300
H    0.92954500  -0.39658000  -0.44227700
H    1.36481400   0.37451000   1.82434400
H   -0.23810500   1.32699600   1.83313600
C   -1.01766400   0.60443900  -0.73730500
H   -1.57278200  -0.30418600  -1.02591600
H   -1.69923100   1.25326800  -0.16779600
H   -0.75368700   1.11985000  -1.67606600
C   -0.86011100  -1.33079900   2.83394900
H   -1.18579200  -1.05699300   3.83768500
H   -0.82418400  -2.28062800   2.30098100
12
Energy:  -156.7460821468
C    0.20083600   0.25980300   0.05113500
C    0.45317000   0.66787500   1.29829900
H    0.92945400  -0.39673400  -0.44210700
H    1.36457600   0.37422700   1.82459600
H   -0.23829400   1.32679200   1.83329900
C   -1.01768200   0.60440200  -0.73723800
H   -1.57281800  -0.30418200  -1.02594900
H   -1.69926400   1.25322400  -0.16774000
H   -0.75361000   1.11985900  -1.67594600
C   -0.85977000  -1.33045500   2.83354100
H   -1.18547900  -1.05650500   3.83723000
H   -0.82401500  -2.28036500   2.30070400
12
Energy:  -156.7460794324
C    0.20073900   0.25966300   0.05127400
C    0.45297000   0.66762600   1.29850800
H    0.92936200  -0.39689000  -0.44193700
H    1.36433600   0.37394100   1.82485100
H   -0.23848500   1.32658600   1.83346500
C   -1.01770100   0.60436400  -0.73717100
H   -1.57285400  -0.30417800  -1.02598100
H   -1.69929800   1.25317900  -0.16768300
H   -0.75353200   1.11986900  -1.67582500
C   -0.85942600  -1.33010800   2.83312900
H   -1.18516300  -1.05601200   3.83677100
H   -0.82384500  -2.28010000   2.30042400
12
Energy:  -156.7460762807
C    0.20063900   0.25952000   0.05142100
C    0.45276400   0.66736900   1.29871700
H    0.92926900  -0.39705000  -0.44176100
H    1.36408900   0.37364700   1.82511300