12
Energy:  -156.8330123005
C    0.20897300   0.25216500   0.06288200
C    0.46768700   0.66158300   1.31138900
H    0.94417800  -0.38826500  -0.44385000
H    1.39386900   0.38341600   1.82256000
H   -0.22415000   1.31813400   1.84891700
C   -1.01510100   0.59774100  -0.72853600
H   -1.57015100  -0.31352300  -1.01187300
H   -1.69599000   1.25005500  -0.16125900
H   -0.74656800   1.10731200  -1.67127700
C   -1.31942400  -1.37245200   2.77786400
H   -0.94085700  -1.07126100   3.77638000
H   -0.70536300  -2.18696500   2.34662500
12
Energy:  -156.8329911956
C    0.20927700   0.25258600   0.06217800
C    0.46807600   0.66212400   1.31074900
H    0.94442100  -0.38785100  -0.44453600
H    1.39424400   0.38397500   1.82187400
H   -0.22382300   1.31857800   1.84822000
C   -1.01498400   0.59802700  -0.72896100
H   -1.57000900  -0.31331800  -1.01211100
H   -1.69581500   1.25028100  -0.16154900
H   -0.74676800   1.10759100  -1.67180200
C   -1.31913400  -1.37263300   2.77890000
H   -0.94259000  -1.07352800   3.77880500
H   -0.70579200  -2.18789200   2.34805800
12
Energy:  -156.8329707304
C    0.20957000   0.25303000   0.06151100
C    0.46847400   0.66263900   1.31006800
H    0.94466900  -0.38745100  -0.44522500
H    1.39460600   0.38453200   1.82119500
H   -0.22351200   1.31903700   1.84752700
C   -1.01485900   0.59830800  -0.72939200
H   -1.56986600  -0.31311300  -1.01234700
H   -1.69564200   1.25050900  -0.16183300
H   -0.74697400   1.10787300  -1.67232600
C   -1.31878200  -1.37275400   2.77990200
H   -0.94434900  -1.07582200   3.78123600
H   -0.70623300  -2.18884600   2.34950700
12
Energy:  -156.8329520558
C    0.20991300   0.25346400   0.06103000
C    0.46873400   0.66311300   1.30929100
H    0.94489200  -0.38708300  -0.44586900
H    1.39498900   0.38502900   1.82059900
H   -0.22320900   1.31945900   1.84687400
C   -1.01478300   0.59858800  -0.72979800
H   -1.56973100  -0.31292200  -1.01256600
H   -1.69547000   1.25071000  -0.16210200
H   -0.74716900   1.10813600  -1.67281600
C   -1.31839700  -1.37281800   2.78079200
H   -0.94600700  -1.07798000   3.78351500
H   -0.70665700  -2.18975500   2.35087400
12
Energy:  -156.8329376139
C    0.21034800   0.25365500   0.06051900
C    0.46871300   0.66365200   1.30875200
H    0.94499100  -0.38673300  -0.44632700
H    1.39539200   0.38537900   1.82017600
H   -0.22288900   1.31972300   1.84630800
C   -1.01485700   0.59896700  -0.72998300
H   -1.56964100  -0.31282200  -1.01275400
H   -1.69526000   1.25079000  -0.16238800
H   -0.74730700   1.10835400  -1.67323900
C   -1.31810100  -1.37270200   2.78162200
H   -0.94736600  -1.07972800   3.78522900
H   -0.70692100  -2.19059500   2.35191000
12
Energy:  -156.8328952943
C    0.21041900   0.25468900   0.05943100
C    0.46998200   0.66419700   1.30764400
H    0.94554400  -0.38621600  -0.44757300
H    1.39565600   0.38639900   1.81893400
H   -0.22257800   1.32070200   1.84518700
C   -1.01432800   0.59913300  -0.73095800
H   -1.56936700  -0.31238200  -1.01311400
H   -1.69511900   1.25132900  -0.16270100
H   -0.74772700   1.10883400  -1.67407100
C   -1.31702700  -1.37276700   2.78285800
H   -0.95047000  -1.08376100   3.78959900
H   -0.70788200  -2.19221800   2.35458800
12
Energy:  -156.8328601385
C    0.21136200   0.25520100   0.05826500
C    0.46998000   0.66542000   1.30639700
H    0.94578300  -0.38546900  -0.44865100
H    1.39649100   0.38719500   1.81797600
H   -0.22186800   1.32136100   1.84382100
C   -1.01442400   0.59991000  -0.73150500
H   -1.56913000  -0.31209800  -1.01352300
H   -1.69468400   1.25156400  -0.16329100
H   -0.74810300   1.10935200  -1.67503000
C   -1.31583700  -1.37225500   2.78438600
H   -0.95378600  -1.08798900   3.79378600
H   -0.70868000  -2.19425100   2.35719400
12
Energy:  -156.8328193209
C    0.21151500   0.25619200   0.05716800
C    0.47113600   0.66600600   1.30525400
H    0.94628600  -0.38497700  -0.44986300
H    1.39672300   0.38816000   1.81680600
H   -0.22156500   1.32235900   1.84264900
C   -1.01397100   0.60018600  -0.73239100
H   -1.56886300  -0.31169600  -1.01388100
H   -1.69449500   1.25204400  -0.16362900
H   -0.74855300   1.10986000  -1.67590000
C   -1.31428800  -1.37178000   2.78548700
H   -0.95713100  -1.09224000   3.79816600
H   -0.70968800  -2.19617100   2.35995800
12
Energy:  -156.8327772672
C    0.21242100   0.25668700   0.05595400
C    0.47110300   0.66723100   1.30410500
H    0.94648400  -0.38428900  -0.45089400
H    1.39746000   0.38889000   1.81592400
H   -0.22088900   1.32302200   1.84125500
C   -1.01403400   0.60090900  -0.73297100
H   -1.56861200  -0.31140100  -1.01425600
H   -1.69409800   1.25228900  -0.16416100
H   -0.74896900   1.11038200  -1.67683000
C   -1.31253900  -1.37088500   2.78663200
H   -0.96058700  -1.09656200   3.80239600
H   -0.71063500  -2.19833200   2.36267100
12
Energy:  -156.8327327004
C    0.21254100   0.25769300   0.05492400
C    0.47226000   0.66774000   1.30296000
H    0.94696000  -0.38388400  -0.45205300
H    1.39756900   0.38978500   1.81484300
H   -0.22066300   1.32404700   1.84010200
C   -1.01359400   0.60119700  -0.73381200
H   -1.56835300  -0.31102600  -1.01459100
H   -1.69391200   1.25273000  -0.16447200
H   -0.74945400   1.11090000  -1.67768700
C   -1.31044200  -1.36989600   2.78745900
H   -0.96408300  -1.10088600   3.80668800
H   -0.71172600  -2.20046000   2.36546200
12
Energy:  -156.8326882398
C    0.21340100   0.25822400   0.05386500
C    0.47219000   0.66886600   1.30177100
H    0.94713600  -0.38330300  -0.45302500
H    1.39819000   0.39042500   1.81407500
H   -0.22006800   1.32471800   1.83874800
C   -1.01364100   0.60186500  -0.73440600
H   -1.56809800  -0.31073500  -1.01492800
H   -1.69355500   1.25296800  -0.16493600
H   -0.74990700   1.11141500  -1.67857100
C   -1.30811400  -1.36857700   2.78822700
H   -0.96763100  -1.10518900   3.81082000
H   -0.71279900  -2.20273700   2.36818400
12
Energy:  -156.8326260283
C    0.21351100   0.25915000   0.05281200
C    0.47325500   0.66936500   1.30076300
H    0.94754000  -0.38296500  -0.45407500
H    1.39819600   0.39120900   1.81312000
H   -0.21988900   1.32569900   1.83762400
C   -1.01323500   0.60216800  -0.73516500
H   -1.56784600  -0.31039400  -1.01523000
H   -1.69337600   1.25335700  -0.16521700
H   -0.75041100   1.11192400  -1.67939100
C   -1.30547600  -1.36712700   2.78875200
H   -0.97119600  -1.10944400   3.81491200
H   -0.71396900  -2.20500100   2.37091900
12
Energy:  -156.8325838795
C    0.21409500   0.25978400   0.05157900
C    0.47358400   0.67034300   1.29978900
H    0.94775600  -0.38250100  -0.45504800
H    1.39850700   0.39185800   1.81232100
H   -0.21944700   1.32648900   1.83628800
C   -1.01311400   0.60271900  -0.73582100
H   -1.56757800  -0.31008200  -1.01554400
H   -1.69309000   1.25364200  -0.16560100
H   -0.75093300   1.11246300  -1.68027100
C   -1.30235600  -1.36532000   2.78917400
H   -0.97505700  -1.11394900   3.81916500
H   -0.71526400  -2.20750600   2.37379300
12
Energy:  -156.8325368072
C    0.21434200   0.26058500   0.05058400
C    0.47402700   0.67110300   1.29883200
H    0.94805200  -0.38221600  -0.45599300
H    1.39867200   0.39244300   1.81161400
H   -0.21912300   1.32725700   1.83508800
C   -1.01273000   0.60300500  -0.73657000
H   -1.56733100  -0.30976000  -1.01580900
H   -1.69296100   1.25401800  -0.16582100
H   -0.75146400   1.11295300  -1.68102700
C   -1.29915700  -1.36326900   2.78958300
H   -0.97876000  -1.11815100   3.82294300
H   -0.71646400  -2.21002600   2.37639900
12
Energy:  -156.8324802548
C    0.21531500   0.26096100   0.04955700
C    0.47409400   0.67201000   1.29777700
H    0.94806500  -0.38174400  -0.45673300
H    1.39893400   0.39292400   1.81100900
H   -0.21876000   1.32798500   1.83388500
C   -1.01305700   0.60384000  -0.73693800
H   -1.56709100  -0.30955200  -1.01610500
H   -1.69252600   1.25406700  -0.16632200
H   -0.75195400   1.11347400  -1.68189600
C   -1.29542300  -1.36125800   2.78944200
H   -0.98254400  -1.12234300   3.82700000
H   -0.71794900  -2.21242400   2.37914900
12
Energy:  -156.8324241542
C    0.21530800   0.26174800   0.04842700
C    0.47473000   0.67267100   1.29715300
H    0.94835100  -0.38158400  -0.45757800
H    1.39885500   0.39343600   1.81037100
H   -0.21855100   1.32872900   1.83278000
C   -1.01253700   0.60399000  -0.73767500
H   -1.56685700  -0.30923800  -1.01632800
H   -1.69248900   1.25445700  -0.16644900
H   -0.75250900   1.11394100  -1.68257400
C   -1.29165400  -1.35886000   2.78959000
H   -0.98628800  -1.12634700   3.83049900
H   -0.71925500  -2.21500200   2.38160800
12
Energy:  -156.8323641351
C    0.21601500   0.26238800   0.04778600
C    0.47483100   0.67335000   1.29588300
H    0.94844500  -0.38132300  -0.45832200
H    1.39897800   0.39382900   1.80989200
H   -0.21831900   1.32947500   1.83167700
C   -1.01264400   0.60460000  -0.73818100
H   -1.56662700  -0.30900600  -1.01658600
H   -1.69219300   1.25458600  -0.16680100
H   -0.75305400   1.11444500  -1.68336100
C   -1.28722900  -1.35634100   2.78930200
H   -0.99025900  -1.13045300   3.83430800
H   -0.72084000  -2.21761100   2.38422600
12
Energy:  -156.8323049339
C    0.21631500   0.26316200   0.04723700
C    0.47511300   0.67385800   1.29479900
H    0.94862800  -0.38121700  -0.45903700
H    1.39894900   0.39418700   1.80946000
H   -0.21817500   1.33017000   1.83070600
C   -1.01243000   0.60490500  -0.73879100
H   -1.56641900  -0.30875500  -1.01679700
H   -1.69207500   1.25483000  -0.16698400
H   -0.75359100   1.11489000  -1.68401300
C   -1.28291400  -1.35377900   2.78912300
H   -0.99399600  -1.13418300   3.83759100
H   -0.72230100  -2.22012900   2.38653100
12
Energy:  -156.8322330681
C    0.21665000   0.26369600   0.04613100
C    0.47540000   0.67462100   1.29424300
H    0.94871900  -0.38106600  -0.45967700
H    1.39884600   0.39451900   1.80902000
H   -0.21797000   1.33079600   1.82964900
C   -1.01231800   0.60531700  -0.73932100
H   -1.56619800  -0.30851200  -1.01700800
H   -1.69191100   1.25501400  -0.16722100
H   -0.75414400   1.11534900  -1.68468000
C   -1.27806000  -1.35097800   2.78883400
H   -0.99798800  -1.13802400   3.84095600
H   -0.72392300  -2.22279200   2.38889800
12
Energy:  -156.8321620116
C    0.21712000   0.26419700   0.04522200
C    0.47561700   0.67526700   1.29348400
H    0.94871900  -0.38091300  -0.46021800
H    1.39870200   0.39479000   1.80866000
H   -0.21783800   1.33142600   1.82869000
C   -1.01224900   0.60575500  -0.73973500
H   -1.56601900  -0.30832300  -1.01722800
H   -1.69175500   1.25516400  -0.16745900
H   -0.75468900   1.11582100  -1.68537100
C   -1.27282300  -1.34808800   2.78826300
H   -1.00201900  -1.14169700   3.84435200
H   -0.72566300  -2.22545800   2.39116400
12
Energy:  -156.8320831815
C    0.21743900   0.26480500   0.04446900
C    0.47580500   0.67586000   1.29273200
H    0.94879200  -0.38088700  -0.46077300
H    1.39853700   0.39500900   1.80837000
H   -0.21774200   1.33202200   1.82778000
C   -1.01215700   0.60611000  -0.74024800
H   -1.56583200  -0.30810300  -1.01742200
H   -1.69163900   1.25532600  -0.16764600
H   -0.75524500   1.11625200  -1.68597400
C   -1.26730700  -1.34507300   2.78781300
H   -1.00610700  -1.14524000   3.84743100
H   -0.72744100  -2.22813800   2.39329200
12
Energy:  -156.8320185787
C    0.21782500   0.26550700   0.04451000
C    0.47580900   0.67610200   1.29145800
H    0.94886600  -0.38091900  -0.46123700
H    1.39845000   0.39515000   1.80821800
H   -0.21773000   1.33255400   1.82712500
C   -1.01212900   0.60640200  -0.74068200
H   -1.56569800  -0.30793400  -1.01758800
H   -1.69154000   1.25544200  -0.16779500
H   -0.75570600   1.11660400  -1.68647000
C   -1.26262400  -1.34256200   2.78733200
H   -1.00947700  -1.14806000   3.84997500
H   -0.72894300  -2.23034700   2.39497600
12
Energy:  -156.8319388629
C    0.21802000   0.26574900   0.04300600
C    0.47611600   0.67692800   1.29160500
H    0.94879900  -0.38085600  -0.46159700
H    1.39809500   0.39531800   1.80793500
H   -0.21759900   1.33298600   1.82623600
C   -1.01200400   0.60673700  -0.74103600
H   -1.56554400  -0.30775500  -1.01776900
H   -1.69146300   1.25557200  -0.16797300
H   -0.75622700   1.11701200  -1.68702100
C   -1.25672800  -1.33952500   2.78681700
H   -1.01355500  -1.15126300   3.85277500
H   -0.73080600  -2.23296200   2.39684600
12
Energy:  -156.8318538807
C    0.21837200   0.26639000   0.04271900
C    0.47615700   0.67730700   1.29059600
H    0.94881400  -0.38092200  -0.46201200
H    1.39787800   0.39541700   1.80781000
H   -0.21759900   1.33350300   1.82553100
C   -1.01196200   0.60704400  -0.74146800
H   -1.56541700  -0.30758000  -1.01795100
H   -1.69138700   1.25568500  -0.16812700
H   -0.75674600   1.11739800  -1.68754100
C   -1.25079900  -1.33653100   2.78623200
H   -1.01754600  -1.15424900   3.85547200
H   -0.73266100  -2.23552100   2.39856300
12
Energy:  -156.8317619889
C    0.21860800   0.26678400   0.04179300
C    0.47631000   0.67790700   1.29029000
H    0.94876000  -0.38096800  -0.46233300
H    1.39753300   0.39549700   1.80766400
H   -0.21756100   1.33392600   1.82479800
C   -1.01189700   0.60734400  -0.74183400
H   -1.56529700  -0.30741600  -1.01812800
H   -1.69133600   1.25578900  -0.16828000
H   -0.75725500   1.11777500  -1.68803500
C   -1.24445100  -1.33347600   2.78567900
H   -1.02167400  -1.15712800   3.85803000
H   -0.73463500  -2.23809500   2.40017900
12
Energy:  -156.8316754916
C    0.21893300   0.26744800   0.04185500
C    0.47625500   0.67812500   1.28914900
H    0.94877200  -0.38110500  -0.46266700
H    1.39731600   0.39552500   1.80764300
H   -0.21761800   1.33437000   1.82425800
C   -1.01189400   0.60759000  -0.74223100
H   -1.56520700  -0.30726300  -1.01829100
H   -1.69128900   1.25587400  -0.16840000
H   -0.75771800   1.11810100  -1.68845600
C   -1.23861900  -1.33071400   2.78514300
H   -1.02539000  -1.15959900   3.86028500
H   -0.73643700  -2.24041200   2.40153500
12
Energy:  -156.8315778011
C    0.21908700   0.26764500   0.04058100
C    0.47645300   0.67882200   1.28931900
H    0.94863800  -0.38114900  -0.46285900
H    1.39686300   0.39556100   1.80752400
H   -0.21757600   1.33468300   1.82358000
C   -1.01181600   0.60786000  -0.74249800
H   -1.56512200  -0.30712600  -1.01846300
H   -1.69127000   1.25595600  -0.16854100
H   -0.75819100   1.11845100  -1.68889400
C   -1.23195200  -1.32772800   2.78461500
H   -1.02951800  -1.16213300   3.86257800
H   -0.73849100  -2.24290300   2.40288200
12
Energy:  -156.8314761761
C    0.21931900   0.26808500   0.04003800
C    0.47649100   0.67925500   1.28881200
H    0.94855900  -0.38127800  -0.46308500
H    1.39649000   0.39555600   1.80750100
H   -0.21761200   1.33504100   1.82301500
C   -1.01179100   0.60810500  -0.74282400
H   -1.56505400  -0.30698500  -1.01863500
H   -1.69125400   1.25603000  -0.16866600
H   -0.75865900   1.11878200  -1.68930300
C   -1.22521200  -1.32478900   2.78409600
H   -1.03361400  -1.16451500   3.86476100
H   -0.74055800  -2.24534600   2.40411600
12
Energy:  -156.8313705070
C    0.21953600   0.26850700   0.03952200
C    0.47651000   0.67966700   1.28833600
H    0.94846700  -0.38142700  -0.46327600
H    1.39609600   0.39552500   1.80750700
H   -0.21766400   1.33537000   1.82249400
C   -1.01177600   0.60833400  -0.74313200
H   -1.56500200  -0.30685200  -1.01880700
H   -1.69125100   1.25609600  -0.16878300
H   -0.75911300   1.11910000  -1.68968500
C   -1.21831500  -1.32189800   2.78360700
H   -1.03771900  -1.16673600   3.86681900
H   -0.74266600  -2.24774500   2.40522300
12
Energy:  -156.8312608280
C    0.21973700   0.26891100   0.03903600
C    0.47651200   0.68006000   1.28788800
H    0.94836200  -0.38159300  -0.46343200
H    1.39568300   0.39547200   1.80754100
H   -0.21772800   1.33567000   1.82201500
C   -1.01176900   0.60854700  -0.74342200
H   -1.56496700  -0.30672600  -1.01898000
H   -1.69126000   1.25615300  -0.16889400
H   -0.75955300   1.11940500  -1.69004000
C   -1.21127200  -1.31906100   2.78315200
H   -1.04182900  -1.16879800   3.86875500
H   -0.74481200  -2.25009900   2.40620600
12
Energy:  -156.8311471761
C    0.21992200   0.26929800   0.03857500
C    0.47649700   0.68043100   1.28746800
H    0.94824600  -0.38177600  -0.46355600
H    1.39525200   0.39539900   1.80760200
H   -0.21780600   1.33594400   1.82157700
C   -1.01177100   0.60874600  -0.74369500
H   -1.56494700  -0.30660600  -1.01915300
H   -1.69128100   1.25620300  -0.16899900
H   -0.75997600   1.11969600  -1.69036900
C   -1.20409200  -1.31628600   2.78273600
H   -1.04594400  -1.17070300   3.87057000
H   -0.74699500  -2.25240400   2.40706800
12
Energy:  -156.8310296321
C    0.22009200   0.26966600   0.03814000
C    0.47646600   0.68078400   1.28707400
H    0.94811800  -0.38197200  -0.46364900
H    1.39480500   0.39530600   1.80768600
H   -0.21789700   1.33619200   1.82117900
C   -1.01178100   0.60892900  -0.74395000
H   -1.56494300  -0.30649300  -1.01932600
H   -1.69131400   1.25624600  -0.16909800
H   -0.76038400   1.11997400  -1.69067200
C   -1.19678500  -1.31357800   2.78236400
H   -1.05006000  -1.17245400   3.87226500
H   -0.74921300  -2.25465800   2.40781200
12
Energy:  -156.8309082726
C    0.22024600   0.27001600   0.03773200
C    0.47641800   0.68111800   1.28670600
H    0.94797900  -0.38218200  -0.46371200
H    1.39434400   0.39519400   1.80779100
H   -0.21799900   1.33641700   1.82081900
C   -1.01179900   0.60909800  -0.74419000
H   -1.56495300  -0.30638600  -1.01950000
H   -1.69135800   1.25628300  -0.16919200
H   -0.76077500   1.12024000  -1.69095200
C   -1.18935900  -1.31094400   2.78203900
H   -1.05417700  -1.17405500   3.87384300
H   -0.75146300  -2.25685800   2.40844100
12
Energy:  -156.8307832464
C    0.22038400   0.27034800   0.03734700
C    0.47635700   0.68143300   1.28636600
H    0.94782900  -0.38240400  -0.46374800
H    1.39386800   0.39506500   1.80791800
H   -0.21811300   1.33661800   1.82049400
C   -1.01182600   0.60925200  -0.74441400
H   -1.56497700  -0.30628400  -1.01967600
H   -1.69141100   1.25631300  -0.16928100
H   -0.76114900   1.12049400  -1.69120700
C   -1.18182300  -1.30838800   2.78176400
H   -1.05829300  -1.17550600   3.87530300
H   -0.75374300  -2.25900200   2.40895600
12
Energy:  -156.8306546925
C    0.22050800   0.27066300   0.03698800
C    0.47628000   0.68172900   1.28604900
H    0.94767000  -0.38263600  -0.46375600
H    1.39338000   0.39492100   1.80806400
H   -0.21823700   1.33679700   1.82020500
C   -1.01186000   0.60939300  -0.74462300
H   -1.56501600  -0.30618800  -1.01985200
H   -1.69147400   1.25633800  -0.16936400
H   -0.76150700   1.12073600  -1.69143900
C   -1.17418400  -1.30591400   2.78154100
H   -1.06240500  -1.17681300   3.87664900
H   -0.75605100  -2.26108700   2.40936200
12
Energy:  -156.8305228016
C    0.22061600   0.27095900   0.03665200
C    0.47618900   0.68200800   1.28575700
H    0.94750000  -0.38287800  -0.46373900
H    1.39288000   0.39476100   1.80822900
H   -0.21837200   1.33695400   1.81994900
C   -1.01190200   0.60952200  -0.74481900
H   -1.56506700  -0.30609700  -1.02003000
H   -1.69154600   1.25635800  -0.16944100
H   -0.76184700   1.12096700  -1.69164800
C   -1.16645100  -1.30352500   2.78137300
H   -1.06651300  -1.17797500   3.87788000
H   -0.75838500  -2.26311300   2.40966200
12
Energy:  -156.8303877890
C    0.22070800   0.27123800   0.03634000
C    0.47608600   0.68227000   1.28548700
H    0.94732200  -0.38313000  -0.46369800
H    1.39236900   0.39458700   1.80841100
H   -0.21851700   1.33709000   1.81972500
C   -1.01195100   0.60963700  -0.74499900
H   -1.56513200  -0.30601100  -1.02020900
H   -1.69162800   1.25637300  -0.16951500
H   -0.76217100   1.12118700  -1.69183400
C   -1.15862900  -1.30122700   2.78126100
H   -1.07061300  -1.17899800   3.87899800
H   -0.76074100  -2.26507700   2.40985800
12
Energy:  -156.8302498835
C    0.22078600   0.27150000   0.03605200
C    0.47596700   0.68251300   1.28524000
H    0.94713500  -0.38339000  -0.46363400
H    1.39184800   0.39439900   1.80861000
H   -0.21867200   1.33720700   1.81953300
C   -1.01200700   0.60974000  -0.74516600
H   -1.56520800  -0.30592900  -1.02039000
H   -1.69171800   1.25638400  -0.16958500
H   -0.76247800   1.12139600  -1.69199900
C   -1.15072600  -1.29901900   2.78120600
H   -1.07470300  -1.17988300   3.88000300
H   -0.76311800  -2.26697700   2.40995400
12
Energy:  -156.8301093706
C    0.22084700   0.27174300   0.03578700
C    0.47583600   0.68273700   1.28501500
H    0.94693800  -0.38365700  -0.46354500
H    1.39131600   0.39419700   1.80882600
H   -0.21883700   1.33730500   1.81937100
C   -1.01207000   0.60983100  -0.74531900
H   -1.56529700  -0.30585200  -1.02057200
H   -1.69181700   1.25639000  -0.16965000
H   -0.76276800   1.12159500  -1.69214300
C   -1.14274900  -1.29690300   2.78120800
H   -1.07878200  -1.18063200   3.88089600
H   -0.76551400  -2.26881300   2.40995200
12
Energy:  -156.8299665151
C    0.22089200   0.27196800   0.03554600
C    0.47569200   0.68294400   1.28481200
H    0.94673400  -0.38393300  -0.46343500
H    1.39077600   0.39398100   1.80905700
H   -0.21901300   1.33738500   1.81923700
C   -1.01214000   0.60991000  -0.74545900
H   -1.56539800  -0.30577900  -1.02075600
H   -1.69192300   1.25639200  -0.16971100
H   -0.76304100   1.12178400  -1.69226500
C   -1.13470200  -1.29488300   2.78126700
H   -1.08284700  -1.18124700   3.88167700
H   -0.76792600  -2.27058300   2.40985500
12
Energy:  -156.8298216054
C    0.22092200   0.27217400   0.03533000
C    0.47553400   0.68313200   1.28462900
H    0.94652200  -0.38421600  -0.46330300
H    1.39022500   0.39375200   1.80930400
H   -0.21919800   1.33744600   1.81913200
C   -1.01221600   0.60997800  -0.74558700
H   -1.56551000  -0.30570900  -1.02094100
H   -1.69203800   1.25639100  -0.16976700
H   -0.76329800   1.12196500  -1.69236800
C   -1.12659200  -1.29295900   2.78138400
H   -1.08689600  -1.18172900   3.88234700
H   -0.77035200  -2.27228500   2.40966500
12
Energy:  -156.8296749309
C    0.22093500   0.27236200   0.03513600
C    0.47536500   0.68330500   1.28446900
H    0.94630100  -0.38450600  -0.46315100
H    1.38966500   0.39351000   1.80956500
H   -0.21939400   1.33748900   1.81905400
C   -1.01229900   0.61003500  -0.74570200
H   -1.56563100  -0.30564400  -1.02112700
H   -1.69215900   1.25638500  -0.16981800
H   -0.76353800   1.12213600  -1.69245000
C   -1.11842500  -1.29113300   2.78155800
H   -1.09092500  -1.18208000   3.88290600
H   -0.77278900  -2.27391900   2.40938300
12
Energy:  -156.8295267805
C    0.22093200   0.27253200   0.03497100
C    0.47518100   0.68345600   1.28432500
H    0.94607200  -0.38480300  -0.46297800
H    1.38909600   0.39325400   1.80984200
H   -0.21960100   1.33751600   1.81900300
C   -1.01238900   0.61008100  -0.74580300
H   -1.56576400  -0.30558200  -1.02131500
H   -1.69228800   1.25637600  -0.16986400
H   -0.76376100   1.12229800  -1.69251100
C   -1.11020400  -1.28940400   2.78178800
H   -1.09493400  -1.18230100   3.88335400
H   -0.77523600  -2.27548300   2.40901300
12
Energy:  -156.8293774877
C    0.22091200   0.27267900   0.03482200
C    0.47498600   0.68359200   1.28421200
H    0.94583300  -0.38510600  -0.46278300
H    1.38851700   0.39298400   1.81013400
H   -0.21981800   1.33752400   1.81897800
C   -1.01248400   0.61011700  -0.74589300
H   -1.56590500  -0.30552400  -1.02150400
H   -1.69242400   1.25636200  -0.16990600
H   -0.76396700   1.12245200  -1.69255300
C   -1.10193900  -1.28777400   2.78207400
H   -1.09891700  -1.18239200   3.88369000
H   -0.77769000  -2.27697600   2.40855400
12
Energy:  -156.8292235047
C    0.22087700   0.27281600   0.03472100
C    0.47477300   0.68370100   1.28409600
H    0.94559000  -0.38541900  -0.46257100
H    1.38793300   0.39270000   1.81044300
H   -0.22004900   1.33751800   1.81898200
C   -1.01258800   0.61014300  -0.74597300
H   -1.56605700  -0.30546800  -1.02169500
H   -1.69256700   1.25634600  -0.16994200
H   -0.76415700   1.12259700  -1.69257600
C   -1.09362600  -1.28624000   2.78241200
H   -1.10287700  -1.18235400   3.88391800
H   -0.78015100  -2.27839900   2.40800900
12
Energy:  -156.8290744481
C    0.22081800   0.27291200   0.03459000
C    0.47456000   0.68381000   1.28405800
H    0.94533200  -0.38573200  -0.46233300
H    1.38733200   0.39240300   1.81076100
H   -0.22028600   1.33748700   1.81900500
C   -1.01269400   0.61015900  -0.74603300
H   -1.56621600  -0.30541700  -1.02188600
H   -1.69271700   1.25632600  -0.16997400
H   -0.76432800   1.12273300  -1.69257800
C   -1.08529400  -1.28481100   2.78280600
H   -1.10679700  -1.18218600   3.88402900
H   -0.78260800  -2.27974300   2.40738000
12
Energy:  -156.8289234598
C    0.22074300   0.27299300   0.03450300
C    0.47432900   0.68389400   1.28402400
H    0.94506900  -0.38605400  -0.46207700
H    1.38672500   0.39209000   1.81109500
H   -0.22053600   1.33744100   1.81905500
C   -1.01280600   0.61016500  -0.74608200
H   -1.56638400  -0.30536900  -1.02207800
H   -1.69287200   1.25630200  -0.17000000
H   -0.76448200   1.12286100  -1.69256100
C   -1.07694300  -1.28348300   2.78325000
H   -1.11067900  -1.18189100   3.88402700
H   -0.78506100  -2.28100900   2.40666900
12
Energy:  -156.8287760273
C    0.22065700   0.27307100   0.03448900
C    0.47407500   0.68394100   1.28396200
H    0.94480100  -0.38638700  -0.46180500
H    1.38611300   0.39176000   1.81145200
H   -0.22080500   1.33738100   1.81913400
C   -1.01292800   0.61016000  -0.74612500
H   -1.56656000  -0.30532200  -1.02227100
H   -1.69303500   1.25627500  -0.17002100
H   -0.76462100   1.12298200  -1.69252300
C   -1.06854500  -1.28224800   2.78374200
H   -1.11453200  -1.18146800   3.88391400
H   -0.78751600  -2.28220500   2.40587500
12
Energy:  -156.8286224600
C    0.22055600   0.27314000   0.03453400
C    0.47379900   0.68395700   1.28389300
H    0.94452600  -0.38673400  -0.46151400
H    1.38549300   0.39141100   1.81183000
H   -0.22109100   1.33730800   1.81924200
C   -1.01305800   0.61014600  -0.74615800
H   -1.56674500  -0.30527800  -1.02246600
H   -1.69320400   1.25624400  -0.17003600
H   -0.76474300   1.12309400  -1.69246600
C   -1.06009400  -1.28110100   2.78427800
H   -1.11836100  -1.18091500   3.88369200
H   -0.78997300  -2.28333100   2.40499500
12
Energy:  -156.8284765095
C    0.22041400   0.27313300   0.03446800
C    0.47354000   0.68399700   1.28398600
H    0.94422900  -0.38707200  -0.46118900
H    1.38484300   0.39104900   1.81221000
H   -0.22137900   1.33720100   1.81936300
C   -1.01318400   0.61012300  -0.74616400
H   -1.56693600  -0.30523900  -1.02266000
H   -1.69338000   1.25620900  -0.17004600
H   -0.76484400   1.12319900  -1.69238900
C   -1.05166900  -1.28006900   2.78486600
H   -1.12212200  -1.18022700   3.88334400
H   -0.79240800  -2.28436400   2.40403600
12
Energy:  -156.8283255980
C    0.22027600   0.27316900   0.03460900
C    0.47323000   0.68395400   1.28392500
H    0.94393900  -0.38744000  -0.46085800
H    1.38420200   0.39066200   1.81262700
H   -0.22170100   1.33709300   1.81952700
C   -1.01332800   0.61008900  -0.74617600
H   -1.56713600  -0.30519900  -1.02285700
H   -1.69356200   1.25617100  -0.17004800
H   -0.76493200   1.12329700  -1.69229200
C   -1.04317300  -1.27911700   2.78549000
H   -1.12586400  -1.17940700   3.88288900
H   -0.79484700  -2.28533300   2.40299000
12
Energy:  -156.8281817982
C    0.22006300   0.27311400   0.03457400
C    0.47301300   0.68392200   1.28410200
H    0.94362900  -0.38779800  -0.46049000
H    1.38349300   0.39027500   1.81302500
H   -0.22204200   1.33696400   1.81971000
C   -1.01345000   0.61003900  -0.74616000
H   -1.56734000  -0.30516300  -1.02305100
H   -1.69375600   1.25613200  -0.17004200
H   -0.76499900   1.12338700  -1.69217300
C   -1.03474200  -1.27830200   2.78617800
H   -1.12951400  -1.17845200   3.88227700
H   -0.79725300  -2.28617900   2.40187300
12
Energy:  -156.8280365546
C    0.21987600   0.27312000   0.03482000
C    0.47270500   0.68379400   1.28404900
H    0.94332700  -0.38818900  -0.46011900
H    1.38281100   0.38985200   1.81347600
H   -0.22241800   1.33683400   1.81993900
C   -1.01360300   0.60998400  -0.74615700
H   -1.56755100  -0.30512600  -1.02324700
H   -1.69395100   1.25608600  -0.17002900
H   -0.76505400   1.12347000  -1.69203500
C   -1.02622400  -1.27759200   2.78692200
H   -1.13314200  -1.17736500   3.88152300
H   -0.79967200  -2.28692800   2.40068000
12
Energy:  -156.8278918085
C    0.21968100   0.27306900   0.03506300
C    0.47233700   0.68368200   1.28405400
H    0.94300200  -0.38858100  -0.45971800
H    1.38213200   0.38939500   1.81395900
H   -0.22279400   1.33666400   1.82018100
C   -1.01377300   0.60992700  -0.74613300
H   -1.56776800  -0.30508900  -1.02344400
H   -1.69415000   1.25603200  -0.17001400
H   -0.76509000   1.12354700  -1.69187600
C   -1.01766900  -1.27701700   2.78773400
H   -1.13672000  -1.17613800   3.88060100
H   -0.80208600  -2.28755100   2.39941600
12
Energy:  -156.8277522644
C    0.21938700   0.27298200   0.03523700
C    0.47242900   0.68333400   1.28420800
H    0.94268300  -0.38895900  -0.45929100
H    1.38123900   0.38901400   1.81432800
H   -0.22333400   1.33661200   1.82053600
C   -1.01393100   0.60984500  -0.74616900
H   -1.56796600  -0.30503600  -1.02362000
H   -1.69435600   1.25598400  -0.16997900
H   -0.76511500   1.12359700  -1.69167000
C   -1.00947100  -1.27713100   2.78900600
H   -1.13997700  -1.17487000   3.87888900
H   -0.80448600  -2.28743300   2.39834900
12
Energy:  -156.8276137623
C    0.21926100   0.27287700   0.03542600
C    0.47154400   0.68351200   1.28426300
H    0.94232000  -0.38936700  -0.45887000
H    1.38075800   0.38844700   1.81495300
H   -0.22353100   1.33625600   1.82067000
C   -1.01410900   0.60980700  -0.74603800
H   -1.56821500  -0.30502800  -1.02384000
H   -1.69455700   1.25591600  -0.16997700
H   -0.76513400   1.12369300  -1.69153400
C   -1.00054500  -1.27589000   2.78933800
H   -1.14380600  -1.17351900   3.87865800
H   -0.80688200  -2.28876400   2.39677600
12
Energy:  -156.8274817530
C    0.21905500   0.27300200   0.03633100
C    0.47071800   0.68333500   1.28376000
H    0.94211100  -0.38984400  -0.45855200
H    1.38037300   0.38790200   1.81558400