[Molden Format]

[FREQ]
       -1641.3652275696
         318.2453515421
         428.8170635364
         515.8104662582
         534.5006111992
         708.2709772936
         792.0866975428
         844.1703295877
         899.4086608675
         970.0048540970
        1014.5850062216
        1015.1560373642
        1096.4945915707
        1120.2023088202
        1243.0068552387
        1307.4006253215
        1348.4763214754
        1458.7191345611
        1500.4677767327
        1563.7648862759
        1601.5169005435
        1647.1520174896
        3072.4868611066
        3082.2645837086
        3114.4596930839
        3178.1557170743
        3207.1148290610

[FR-COORD]
C          1.7952029947        2.5049194568       -0.0720954558
C         -0.8719631680        2.3345961918       -0.0923718294
C         -2.1596620559        0.0724048302        0.4129883919
C         -0.8028403395       -2.1802158451        0.0650107142
O          1.5967482137       -2.2693369758       -0.2414135819
H          2.1786854279       -0.0231468188       -0.7084786489
H          2.6568832333        4.1763193010       -0.9337929905
H          2.7765196389        1.8885122392        1.6532880108
H         -1.8544317397       -3.9569657981       -0.2293509323
H         -4.2190277540       -0.0060269887        0.4314988309
H         -1.9862548250        3.9113214457       -0.8565845112

[FR-NORM-COORD]
vibration 1
           0.0367736509       -0.0566315817       -0.0196785445
          -0.0435337115       -0.0118246033        0.0103365260
          -0.0006223916        0.0356218276       -0.0039282879
           0.0544418282       -0.0202305897       -0.0086358875
          -0.0340203298       -0.0316795944        0.0167089984
           0.1255102094        0.9258494543       -0.1639550463
           0.0103527578       -0.0456757393       -0.0340878551
          -0.0734282170        0.1916205084        0.1463564750
          -0.0490086619        0.0122562353       -0.0327755382
          -0.0023195709        0.0094051272       -0.0285228553
          -0.0315071223        0.0411578009        0.1086341872
vibration 2
           0.0395235571        0.0105166484       -0.1760713846
           0.0295677706       -0.0180050096        0.1974686997
          -0.0292199792       -0.0477390396       -0.0701049568
          -0.0519137704       -0.0302965784       -0.1423361983
           0.0007672024        0.0558000998        0.1829928226
          -0.0002696477       -0.0678837835       -0.0327955182
          -0.1651033062        0.0907539701       -0.2314126427
           0.3604621818       -0.0050394525       -0.3634772529
           0.0051301590       -0.0174781528       -0.4220737717
          -0.0326656855        0.0300873997       -0.1224868013
          -0.0363427055        0.1022913097        0.5427433735
vibration 3
          -0.0075504342        0.0523320944        0.0139172990
           0.0062795689       -0.0232911256       -0.0467864206
           0.0303232876        0.0022913894        0.1777570118
          -0.0182039088        0.0184421664       -0.1331959094
          -0.0022006868       -0.0503992608        0.0377102878
           0.0638581545       -0.0441462643        0.2792427229
          -0.0166572404       -0.1175729870       -0.3268001600
          -0.0512812193        0.4134834710        0.1644281572
          -0.0994635129        0.1408447277       -0.5733324053
           0.0272484451        0.0053334913        0.0811239910
          -0.0179495223       -0.1907263326       -0.3623663504
vibration 4
           0.0725091284       -0.2517375156        0.0200468911
           0.0676410631       -0.2117210168       -0.0868014739
          -0.1410652893       -0.0472425124        0.1458330921
          -0.0172536035        0.0782621629       -0.0204567784
          -0.0108754772        0.3687574493        0.0078107935
          -0.0249738049        0.1568735689       -0.2523075568
           0.1101821892       -0.2368099529        0.0988159965
           0.0522297320       -0.4119799255       -0.0311843010
           0.1618510633        0.0100066948       -0.2477618297
          -0.1441077444        0.0108015234       -0.0300423568
           0.2337518945       -0.2323645470       -0.3594818203
vibration 5
           0.1250123885        0.2400530354        0.0661252523
           0.1318497473       -0.1474730210       -0.0014112593
          -0.0076125629       -0.0859421351       -0.0358121412
          -0.0895082725       -0.1376473086        0.0798503608
          -0.1284787964        0.0593506547       -0.0549383888
          -0.0817276033        0.2254476534       -0.0377100307
          -0.2050907083        0.3204372800       -0.1174263926
           0.3724875307        0.4347703527       -0.0092376293
          -0.0358711574       -0.1967527343        0.2000251544
          -0.0166057830        0.0901190580       -0.2673217213
           0.1038471570       -0.2560527389       -0.1913112464
vibration 6
           0.0038037834        0.0735339301       -0.0325069600
           0.0218719216       -0.0138813234       -0.1227771809
           0.0945581485       -0.0214960842        0.0619224707
          -0.0449188069       -0.0721452405       -0.0711874985
          -0.0416876752        0.0151948686        0.0616702672
           0.0188531428        0.0808801223       -0.1664952339
           0.0978838142        0.3313465718        0.5646872294
          -0.2742296053       -0.3249315677       -0.0136866237
          -0.0583511465       -0.0674076625       -0.0745484561
           0.0949483861        0.0864817184        0.4389652959
          -0.1142542897        0.0571750688        0.2315846566
vibration 7
           0.0288414487       -0.0321658599        0.0190197754
           0.0073949552        0.0097705645       -0.0074656471
          -0.0056282927       -0.0252888108       -0.0880382955
          -0.0233852094       -0.0370048842       -0.0248493524
          -0.0114472017        0.0619063359       -0.0055537889
           0.0227279333       -0.0577193619        0.2903696033
           0.0961217108       -0.2185908990       -0.2768620391
          -0.1017960384        0.3123632722        0.2221845525
           0.0913173284       -0.1338227015        0.1744395054
           0.0041782112        0.0383393721        0.7129519357
          -0.0168756021        0.0853091430        0.1716199600
vibration 8
          -0.0473541707        0.0087364683        0.0416445072
          -0.0337572438        0.1391001946        0.0278752468
           0.1576443372       -0.0325174942        0.0026293839
          -0.0254477344       -0.1500357242        0.0041780944
          -0.0476081182        0.0788335031        0.0138153054
          -0.2976553151        0.1314338705       -0.0912848967
           0.4262697535       -0.4466605022       -0.3498682308
           0.0192279613       -0.3179195586       -0.1244417483
          -0.0364233774       -0.1345696149       -0.0788944414
           0.1523582211       -0.0247123994       -0.2499118552
          -0.1164644434       -0.0453526181       -0.2336730295
vibration 9
          -0.0269588985        0.0557391343        0.0909120377
          -0.0082739387       -0.0101535036       -0.0129439170
          -0.0524378225        0.0060535780       -0.0312821817
           0.0176644751        0.0345052039       -0.0454258494
           0.0297658484       -0.0544154422        0.0336324820
          -0.1035625543        0.1931149474       -0.3164840492
          -0.0606453032       -0.0679820749       -0.1750369879
           0.4514258728       -0.3128429444       -0.3322707238
          -0.0380652850        0.0477981855        0.0456490267
          -0.0441623439        0.0026235502        0.5128015292
           0.1561556462       -0.0248058702       -0.2834343596
vibration 10
           0.0084733372        0.0016079817       -0.0005819170
          -0.0014636070        0.0138688595        0.0039682676
          -0.0183239759        0.0009581064        0.0956366420
          -0.0180171403        0.0174797702       -0.1923870968
           0.0075557071       -0.0108269693        0.0347206723
           0.0068581962        0.0156723134        0.0133111659
           0.0331520162       -0.0344829156       -0.0455056886
          -0.0073790371        0.0289100905        0.0207515078
           0.1953392052       -0.2750705148        0.8716798580
          -0.0281932782        0.0146268790       -0.2600557392
           0.0295521315        0.0183592727       -0.0395529764
vibration 11
          -0.0937150744       -0.1251831748       -0.0083050771
           0.0237741613       -0.0063025822        0.0830698869
           0.1852347157        0.0284702979       -0.0666762568
          -0.0155618614        0.0269868056       -0.0326536649
          -0.0427148368        0.0333047857        0.0201546917
          -0.0540545284       -0.0336128910       -0.1112858562
          -0.6264077598        0.2414175063        0.1680109567
           0.0206944146        0.2206439943        0.0498117445
          -0.1429924001        0.0746368546        0.1680490052
           0.1971996758        0.0917431410        0.1424037779
           0.0959849171       -0.2181395720       -0.4443666320
vibration 12
          -0.0902473000       -0.0219339505        0.1064215091
           0.0129719057       -0.1014088187       -0.1377175330
           0.1091344298        0.0369410359        0.0194044384
           0.0044173134        0.0509046074        0.0007858283
          -0.0238316965        0.0126229210       -0.0002490911
          -0.0218382836       -0.0199682388        0.0519029715
          -0.2656351976       -0.1664673707       -0.3345478492
           0.2773600738        0.0008609968       -0.1114132605
          -0.0912625805        0.1042282594        0.0482790526
           0.1120359038        0.0704363027       -0.2155301150
          -0.0643698695        0.2332333303        0.6974968056
vibration 13
           0.0120780136        0.0735136289       -0.0264254028
           0.0099158911       -0.1203362429        0.0690901939
           0.0655000178       -0.0610383491       -0.0667574341
           0.0169132976        0.1835930037       -0.0118897547
          -0.0584309937       -0.0092688912        0.0112928395
           0.0428262996        0.0362972129        0.0290484112
           0.4134799536       -0.1716224730       -0.0825402089
          -0.2496427685       -0.1979452021        0.0251779499
          -0.2272448677        0.2973946043        0.2125906936
           0.0896795116       -0.2934523404        0.0429403959
          -0.3849147403       -0.4252962060        0.0219934440
vibration 14
          -0.0833230095        0.0306053985       -0.0126757604
           0.0539461146       -0.0803066643        0.0488636288
          -0.0208092037        0.0653324109       -0.0184221581
          -0.0112440143       -0.0274571477        0.0065884665
           0.0648275299       -0.0158045742       -0.0103837019
          -0.0213906668        0.0605580475       -0.0280279924
           0.0817229478       -0.1156891131       -0.1057172968
          -0.2760373726       -0.1297995786        0.0297425688
           0.0780487532       -0.0758128096       -0.0106749000
          -0.0479178429        0.8737451960       -0.0187421928
          -0.1118479325       -0.2213614961        0.0082356866
vibration 15
          -0.1104450782        0.0553778511       -0.0379347293
           0.1020653392       -0.0343879000        0.0363902753
          -0.0054210302       -0.0317025235        0.0018750367
           0.0123157593        0.0027677711        0.0029820876
          -0.0137056395       -0.0013308674        0.0005930184
          -0.0184330779        0.1242297163        0.0522014425
           0.0091177561       -0.0738641825       -0.1352595424
          -0.4112888533       -0.1262364815        0.0565296717
          -0.0815817208        0.0513380775        0.0130494762
           0.0047977481       -0.2312678701       -0.0128768414
           0.7325883501        0.3715199583       -0.0224992378
vibration 16
          -0.0562084701        0.0025469696       -0.0278522330
          -0.0204932716       -0.0260181263        0.0097382473
           0.0285909124        0.0205748625       -0.0071522970
           0.0665988231        0.0261188124        0.0069145765
          -0.0952930902       -0.0097924157       -0.0113852953
           0.2481788776        0.1124165574        0.6114273438
           0.1527352839        0.0132663443        0.2132409832
           0.2875068924       -0.1370268098       -0.2508578402
           0.4693211701       -0.1904412731       -0.0869794972
           0.0347091013        0.0897692386        0.0284689308
           0.0997857938       -0.0090778606       -0.1160964008
vibration 17
           0.0127689123        0.0090526400        0.0239166587
           0.0486027059        0.0117998994        0.0023560249
           0.0025862699        0.0336620331       -0.0057960655
           0.0242833134        0.0469996243        0.0102302836
          -0.0654731852       -0.0312934526        0.0152203224
          -0.1187144155       -0.1099944943       -0.4095669352
          -0.1961738833       -0.0059051292       -0.2065957478
          -0.2548822200       -0.0452341378        0.1326396413
           0.6677304833       -0.2882365693       -0.2007513622
           0.0137116822       -0.1796872558        0.0213814426
          -0.1232375540       -0.0830047621        0.0557135827
vibration 18
          -0.0056477818       -0.0007880904        0.0018198363
           0.0902475509        0.0030277475        0.0019095846
          -0.0393128216        0.1491085681       -0.0014969992
          -0.0484073050       -0.0844629644       -0.0045255318
           0.0514773229        0.0113424067       -0.0151019671
           0.1178718722        0.1818042311        0.4153458010
          -0.3376974192        0.0626982971       -0.1583007233
          -0.1271131827       -0.3950080734       -0.0727882255
          -0.1187910424       -0.0695487358        0.0415525607
          -0.0249600429       -0.4862296877        0.0349855375
          -0.2891390944       -0.2701195995        0.0061878961
vibration 19
          -0.1218599955       -0.0170365601       -0.0177390842
           0.0821032248       -0.0443337309        0.0053213714
          -0.0093355839        0.1005006194       -0.0059587278
          -0.0516186433       -0.0187107966       -0.0015766727
           0.0436833680       -0.0065804687        0.0020960090
          -0.2866769261        0.0237097768       -0.1867947547
           0.4788966586       -0.1201414437        0.3675678556
           0.2644574874        0.4938036694       -0.0553706708
           0.0840308008       -0.0966706361       -0.0318361432
           0.0073376002       -0.3294088861        0.0303196891
          -0.0421837725       -0.1099875334        0.0804271426
vibration 20
          -0.0973679594       -0.0627347533       -0.0031685701
           0.2642741428        0.2051621364       -0.0649400586
          -0.0935150297       -0.2431764216        0.0239052778
           0.0522952060        0.0821494091        0.0074454162
          -0.0228208078       -0.0243991542       -0.0016736675
          -0.4559962927        0.3625618082        0.2932896773
          -0.1979914142        0.0387683932        0.1204282985
           0.0912346135        0.0495548243       -0.0710354543
          -0.0303173361        0.1320902764        0.0124008047
          -0.1227602390        0.2003936836       -0.0143880589
          -0.4185125033       -0.1746741027        0.1235374816
vibration 21
          -0.0547194410       -0.0052426297        0.0159068036
           0.0320294596        0.0541609294       -0.0050425108
           0.0377126515       -0.0932414253       -0.0010742878
          -0.2029822646        0.0573091654        0.0423585591
           0.0666447031       -0.0047461704       -0.0143582326
           0.8906746796        0.1518663337       -0.2084237464
           0.0409194937       -0.0794685502       -0.0390484226
           0.0735960305        0.0303162193       -0.0431180726
           0.1654435041       -0.1396180268       -0.0452769665
           0.0377817847       -0.0367522327       -0.0306394128
          -0.0281126023       -0.0056411262       -0.0265418277
vibration 22
          -0.0776470434        0.0032178102        0.0204377263
           0.0782363666        0.0421745839        0.0033395475
          -0.0718934960        0.0381366268        0.0065215638
           0.1837632775       -0.1010450596       -0.0300386912
          -0.1038778481        0.0310558271        0.0170430426
           0.7108988108       -0.3326420674       -0.3589293345
           0.0797178370       -0.0960382145       -0.0182503195
           0.0382310222        0.1214141843       -0.0184829870
          -0.2875579983        0.1238961654        0.0838484414
          -0.0870036300        0.0010065223        0.0159052449
          -0.1447005042       -0.1019546293        0.0223259822
vibration 23
           0.0015962323       -0.0007327758        0.0020980622
           0.0010169218        0.0001187488        0.0002498073
           0.0042607698        0.0031096715       -0.0002632060
          -0.0386140168       -0.0760512004       -0.0114629744
          -0.0013028795        0.0001439840        0.0003106232
           0.0110749032        0.0209068935       -0.0057210167
          -0.0021116639       -0.0059403550        0.0031548008
          -0.0180991046        0.0122160189       -0.0303530290
           0.4872548422        0.8533095694        0.1378379024
          -0.0767045574       -0.0081205496        0.0015966044
          -0.0028129284        0.0011566941        0.0002208625
vibration 24
          -0.0542568165       -0.0064902493       -0.0431382539
           0.0025355159        0.0021421559       -0.0019231592
          -0.0002955880        0.0011737429        0.0002385991
          -0.0009079841       -0.0027822645       -0.0006104531
           0.0001046665        0.0000841606        0.0004642079
          -0.0060250901       -0.0071848549       -0.0143982137
           0.1812102464        0.3597198474       -0.2056806214
           0.4125180406       -0.2771491926        0.7348605635
           0.0181508095        0.0307669710        0.0026098711
          -0.0008515884       -0.0018620481        0.0005350197
           0.0235038419       -0.0347020175        0.0156721927
vibration 25
          -0.0028662014        0.0094389338       -0.0104463542
           0.0453867245       -0.0647541553        0.0300053904
          -0.0062652002        0.0017480933        0.0001755721
          -0.0012152837       -0.0003808209        0.0002341029
           0.0003044292        0.0001391292        0.0001276085
           0.0018117736        0.0030480680       -0.0030053010
          -0.0438046274       -0.0866514281        0.0460830436
           0.0478917090       -0.0301473356        0.0797399545
           0.0038073934        0.0060356271       -0.0009769443
           0.0924156062       -0.0002793568       -0.0033015284
          -0.5241691117        0.7481353302       -0.3583284870
vibration 26
          -0.0156619071       -0.0710373513        0.0597033093
           0.0078192942       -0.0093442176        0.0045726196
          -0.0031682429        0.0006358160       -0.0000423317
           0.0003097441        0.0005205682        0.0001916177
           0.0000643344        0.0003602495       -0.0004761470
           0.0010650832        0.0081977482        0.0164724899
           0.3695723273        0.7168167102       -0.3696887460
          -0.2071061142        0.1154517915       -0.3558147291
          -0.0042729291       -0.0071797469        0.0009176532
           0.0417563657        0.0005226166       -0.0008202820
          -0.0746194632        0.1037941607       -0.0506095848
vibration 27
           0.0016455161        0.0018756126       -0.0013497537
          -0.0029699419        0.0094362530       -0.0038199426
          -0.0869214609       -0.0026178737        0.0028639087
          -0.0015394416       -0.0091015904       -0.0016890358
           0.0004942688       -0.0000096736        0.0000688797
           0.0036831767        0.0013587844       -0.0029552345
          -0.0120631621       -0.0213399410        0.0107624798
           0.0030824276       -0.0006262915        0.0060319543
           0.0316467641        0.0640383647        0.0115904531
           0.9879258236        0.0343834868       -0.0148907954
           0.0469390865       -0.0728076705        0.0359336490
