[Molden Format]
[Atoms] (AU)
C    1    6           1.7952029947         2.5049194568        -0.0720954558
C    2    6          -0.8719631680         2.3345961918        -0.0923718294
C    3    6          -2.1596620559         0.0724048302         0.4129883919
C    4    6          -0.8028403395        -2.1802158451         0.0650107142
O    5    8           1.5967482137        -2.2693369758        -0.2414135819
H    6    1           2.1786854279        -0.0231468188        -0.7084786489
H    7    1           2.6568832333         4.1763193010        -0.9337929905
H    8    1           2.7765196389         1.8885122392         1.6532880108
H    9    1          -1.8544317397        -3.9569657981        -0.2293509323
H   10    1          -4.2190277540        -0.0060269887         0.4314988309
H   11    1          -1.9862548250         3.9113214457        -0.8565845112
[GTO]
  1 0
 s    8  1.00
     6665.0000000000         0.0006920000
     1000.0000000000         0.0053290000
      228.0000000000         0.0270770000
       64.7100000000         0.1017180000
       21.0600000000         0.2747400000
        7.4950000000         0.4485640000
        2.7970000000         0.2850740000
        0.5215000000         0.0152040000
 s    8  1.00
     6665.0000000000        -0.0001460000
     1000.0000000000        -0.0011540000
      228.0000000000        -0.0057250000
       64.7100000000        -0.0233120000
       21.0600000000        -0.0639550000
        7.4950000000        -0.1499810000
        2.7970000000        -0.1272620000
        0.5215000000         0.5445290000
 s    1  1.00
        0.1596000000         1.0000000000
 p    3  1.00
        9.4390000000         0.0381090000
        2.0020000000         0.2094800000
        0.5456000000         0.5085570000
 p    1  1.00
        0.1517000000         1.0000000000
 d    1  1.00
        0.5500000000         1.0000000000

  2 0
 s    8  1.00
     6665.0000000000         0.0006920000
     1000.0000000000         0.0053290000
      228.0000000000         0.0270770000
       64.7100000000         0.1017180000
       21.0600000000         0.2747400000
        7.4950000000         0.4485640000
        2.7970000000         0.2850740000
        0.5215000000         0.0152040000
 s    8  1.00
     6665.0000000000        -0.0001460000
     1000.0000000000        -0.0011540000
      228.0000000000        -0.0057250000
       64.7100000000        -0.0233120000
       21.0600000000        -0.0639550000
        7.4950000000        -0.1499810000
        2.7970000000        -0.1272620000
        0.5215000000         0.5445290000
 s    1  1.00
        0.1596000000         1.0000000000
 p    3  1.00
        9.4390000000         0.0381090000
        2.0020000000         0.2094800000
        0.5456000000         0.5085570000
 p    1  1.00
        0.1517000000         1.0000000000
 d    1  1.00
        0.5500000000         1.0000000000

  3 0
 s    8  1.00
     6665.0000000000         0.0006920000
     1000.0000000000         0.0053290000
      228.0000000000         0.0270770000
       64.7100000000         0.1017180000
       21.0600000000         0.2747400000
        7.4950000000         0.4485640000
        2.7970000000         0.2850740000
        0.5215000000         0.0152040000
 s    8  1.00
     6665.0000000000        -0.0001460000
     1000.0000000000        -0.0011540000
      228.0000000000        -0.0057250000
       64.7100000000        -0.0233120000
       21.0600000000        -0.0639550000
        7.4950000000        -0.1499810000
        2.7970000000        -0.1272620000
        0.5215000000         0.5445290000
 s    1  1.00
        0.1596000000         1.0000000000
 p    3  1.00
        9.4390000000         0.0381090000
        2.0020000000         0.2094800000
        0.5456000000         0.5085570000
 p    1  1.00
        0.1517000000         1.0000000000
 d    1  1.00
        0.5500000000         1.0000000000

  4 0
 s    8  1.00
     6665.0000000000         0.0006920000
     1000.0000000000         0.0053290000
      228.0000000000         0.0270770000
       64.7100000000         0.1017180000
       21.0600000000         0.2747400000
        7.4950000000         0.4485640000
        2.7970000000         0.2850740000
        0.5215000000         0.0152040000
 s    8  1.00
     6665.0000000000        -0.0001460000
     1000.0000000000        -0.0011540000
      228.0000000000        -0.0057250000
       64.7100000000        -0.0233120000
       21.0600000000        -0.0639550000
        7.4950000000        -0.1499810000
        2.7970000000        -0.1272620000
        0.5215000000         0.5445290000
 s    1  1.00
        0.1596000000         1.0000000000
 p    3  1.00
        9.4390000000         0.0381090000
        2.0020000000         0.2094800000
        0.5456000000         0.5085570000
 p    1  1.00
        0.1517000000         1.0000000000
 d    1  1.00
        0.5500000000         1.0000000000

  5 0
 s    8  1.00
    11720.0000000000         0.0007100000
     1759.0000000000         0.0054700000
      400.8000000000         0.0278370000
      113.7000000000         0.1048000000
       37.0300000000         0.2830620000
       13.2700000000         0.4487190000
        5.0250000000         0.2709520000
        1.0130000000         0.0154580000
 s    8  1.00
    11720.0000000000        -0.0001600000
     1759.0000000000        -0.0012630000
      400.8000000000        -0.0062670000
      113.7000000000        -0.0257160000
       37.0300000000        -0.0709240000
       13.2700000000        -0.1654110000
        5.0250000000        -0.1169550000
        1.0130000000         0.5573680000
 s    1  1.00
        0.3023000000         1.0000000000
 p    3  1.00
       17.7000000000         0.0430180000
        3.8540000000         0.2289130000
        1.0460000000         0.5087280000
 p    1  1.00
        0.2753000000         1.0000000000
 d    1  1.00
        1.1850000000         1.0000000000

  6 0
 s    3  1.00
       13.0100000000         0.0196850000
        1.9620000000         0.1379770000
        0.4446000000         0.4781480000
 s    1  1.00
        0.1220000000         1.0000000000
 p    1  1.00
        0.7270000000         1.0000000000

  7 0
 s    3  1.00
       13.0100000000         0.0196850000
        1.9620000000         0.1379770000
        0.4446000000         0.4781480000
 s    1  1.00
        0.1220000000         1.0000000000
 p    1  1.00
        0.7270000000         1.0000000000

  8 0
 s    3  1.00
       13.0100000000         0.0196850000
        1.9620000000         0.1379770000
        0.4446000000         0.4781480000
 s    1  1.00
        0.1220000000         1.0000000000
 p    1  1.00
        0.7270000000         1.0000000000

  9 0
 s    3  1.00
       13.0100000000         0.0196850000
        1.9620000000         0.1379770000
        0.4446000000         0.4781480000
 s    1  1.00
        0.1220000000         1.0000000000
 p    1  1.00
        0.7270000000         1.0000000000

  10 0
 s    3  1.00
       13.0100000000         0.0196850000
        1.9620000000         0.1379770000
        0.4446000000         0.4781480000
 s    1  1.00
        0.1220000000         1.0000000000
 p    1  1.00
        0.7270000000         1.0000000000

  11 0
 s    3  1.00
       13.0100000000         0.0196850000
        1.9620000000         0.1379770000
        0.4446000000         0.4781480000
 s    1  1.00
        0.1220000000         1.0000000000
 p    1  1.00
        0.7270000000         1.0000000000

[5D7F]
[9G]

[MO]
 Sym= A
 Ene=        -1.9154741265e+01
 Spin= Alpha
 Occup=         2.0000000000e+00
  1        -1.6448358372e-05
  2        -5.2147278728e-05
  3        -5.1451149385e-04
  4         7.3136176278e-05
  5         8.5424313255e-05
  6        -1.3933170891e-05
  7        -2.2861867193e-04
  8         1.4700790673e-04
  9         4.6397188191e-04
 10         5.0176397955e-05
 11         9.5267296545e-05
 12        -8.6395167028e-05
 13         1.1277070231e-04
 14        -8.4210618732e-05
 15        -9.1178438505e-05
 16        -1.6813470969e-04
 17         3.7333001561e-03
 18        -5.6436538709e-05
 19        -3.5928053596e-05
 20        -6.1654127659e-05
 21        -7.1416236368e-04
 22        -1.7271528376e-03
 23         5.7542043467e-04
 24        -2.2618382004e-06
 25         7.5293246846e-05
 26        -6.9951255871e-05
 27        -3.0239698419e-05
 28         5.9602746596e-06
 29         1.8341613916e-04
 30         2.6877104737e-04
 31        -4.5368483270e-03
 32        -7.2302142354e-05
 33         2.8509938534e-04
 34         3.9720509072e-05
 35        -4.3646103951e-03
 36        -2.2749187985e-03
 37         6.4244038865e-04
 38         1.1784663806e-04
 39         1.2837603413e-04
 40         7.7343219026e-05
 41        -4.3420417244e-04
 42         4.1343463248e-04
 43         3.3398056933e-04
 44         5.0851820701e-04
 45         6.5765691633e-03
 46         2.4570037190e-04
 47        -1.4053082165e-04
 48        -1.2049416279e-04
 49         5.4054211460e-03
 50         2.4406066755e-03
 51        -4.7845304144e-04
 52        -2.2870178068e-04
 53         6.8702113385e-05
 54         1.9293077364e-04
 55        -9.9060711960e-04
 56         3.5351058349e-04
 57         1.0042319696e+00
 58         9.5847600235e-03
 59        -1.5396279291e-02
 60        -1.5307973291e-03
 61         5.7824084338e-04
 62         3.0998613496e-05
 63         3.3365739254e-03
 64        -1.5648060983e-03
 65        -2.0426451647e-04
 66         1.4085529377e-04
 67         2.0722933798e-05
 68         4.4213899356e-05
 69         1.0469497585e-04
 70         3.5388974875e-05
 71         9.8434417428e-04
 72         9.2665638614e-04
 73        -2.1813343945e-04
 74        -3.1069608239e-04
 75         1.7699449246e-04
 76         1.6576439379e-04
 77         3.4573686182e-04
 78        -4.6691902370e-05
 79        -7.8646375587e-05
 80         9.0286322504e-06
 81        -1.7228446319e-04
 82        -3.1748885840e-04
 83         9.2472095582e-05
 84         6.1070435571e-05
 85         6.1642257676e-05
 86        -3.7379425611e-04
 87         1.0031196623e-03
 88        -7.0301753633e-04
 89        -1.5674462825e-04
 90         7.0531294439e-05
 91        -1.7759832360e-04
 92        -1.2638145799e-03
 93         1.9163715739e-04
 94         1.9096438002e-04
 95        -5.2322718783e-05
 96        -8.7454492353e-05
 97         2.3554311485e-04
 98         4.6559339760e-05
 99         5.3835769344e-05
100        -3.2514972372e-05
 Sym= A
 Ene=        -1.0267366386e+01
 Spin= Alpha
 Occup=         2.0000000000e+00
  1        -3.7917489366e-04
  2        -5.3144569098e-04
  3         1.3142678798e-03
  4         1.9415553338e-04
  5         7.7703251129e-05
  6        -5.5719626420e-06
  7        -9.4240883171e-04
  8        -2.2313324905e-04
  9        -1.9175556320e-05
 10        -1.1989404416e-04
 11        -8.7081468149e-05
 12        -1.7906218407e-05
 13        -6.5555261290e-05
 14        -9.2936047937e-05
 15        -3.8043752974e-04
 16        -5.9992294382e-04
 17         4.5310540843e-03
 18        -1.1474559091e-04
 19        -9.3222168228e-06
 20         1.7612178217e-05
 21        -2.0246600622e-03
 22        -2.9630684270e-03
 23         6.9342558882e-04
 24        -2.9843594840e-04
 25        -1.7839303094e-04
 26        -8.6666268153e-05
 27         5.0163273083e-05
 28         1.1337258837e-04
 29         2.6629966773e-03
 30        -5.5281055324e-04
 31        -7.7746116499e-04
 32        -4.8920673230e-04
 33         1.0527138804e-03
 34         1.5938827081e-04
 35        -2.1551360699e-03
 36        -4.8292445343e-03
 37         4.4563044456e-04
 38         1.0522545170e-03
 39         2.3932846388e-04
 40        -1.4966830048e-04
 41         5.3802441072e-04
 42         9.9692187620e-04
 43         1.0059535187e+00
 44         1.5352189253e-02
 45        -1.0535252356e-02
 46         7.7818499923e-04
 47        -3.0039758530e-04
 48        -3.8570223295e-04
 49         4.7575765563e-03
 50        -1.2461380505e-03
 51        -5.7980346506e-04
 52        -1.6060409174e-03
 53        -2.3131685120e-04
 54         4.7219775275e-04
 55         2.9741663446e-04
 56         3.1189177622e-04
 57         6.4643806553e-04
 58         1.2561133847e-03
 59        -5.5119943553e-03
 60         5.3330009143e-04
 61        -7.4165937863e-05
 62        -7.4092483829e-05
 63         3.4139575882e-03
 64        -1.5314193490e-04
 65        -3.8457011966e-04
 66         7.1379315055e-04
 67         2.8380408559e-04
 68         5.5984904166e-06
 69        -8.1024721597e-04
 70         3.0007061780e-05
 71         3.1550801306e-04
 72        -3.1342775269e-04
 73        -4.7222896047e-04
 74        -3.7197962985e-04
 75         5.3962969541e-05
 76        -7.6725434021e-06
 77         4.3922893583e-04
 78        -2.2473795972e-05
 79        -2.7120656139e-05
 80         2.5087827308e-05
 81        -9.5443339932e-05
 82         2.0978848134e-04
 83         6.2527150239e-05
 84         8.7632153695e-05
 85        -6.4199277658e-05
 86        -2.0579282592e-03
 87         2.4352655909e-03
 88        -1.3597103761e-03
 89        -1.6659592799e-03
 90        -2.6662354250e-04
 91        -2.4661181289e-04
 92        -4.5646130502e-04
 93         2.1965859349e-04
 94         2.6916224755e-04
 95        -2.6155400508e-05
 96        -1.0778413444e-04
 97         3.6186422026e-04
 98         1.5738759425e-04
 99         1.1231232837e-04
100        -4.9249002588e-05
 Sym= A
 Ene=        -1.0225152118e+01
 Spin= Alpha
 Occup=         2.0000000000e+00
  1         4.1990768138e-03
  2        -7.8785062363e-04
  3         5.0130352635e-03
  4         1.0306192538e-03
  5        -1.1935011421e-06
  6         1.3840001746e-05
  7        -2.6857111425e-03
  8        -8.2252564089e-04
  9         1.9547976900e-04
 10         9.0193125198e-04
 11         7.6868144745e-05
 12         4.4949345903e-05
 13        -1.0878225814e-03
 14        -1.7739090771e-04
 15         1.0064687260e+00
 16         1.6287252211e-02
 17        -1.9854862504e-02
 18        -2.7080973127e-04
 19         5.5289334572e-05
 20        -4.3089672767e-04
 21        -2.5795965791e-03
 22         3.6560439255e-03
 23        -8.3721553796e-04
 24        -7.7849946292e-04
 25         4.4091871490e-04
 26        -7.9782328584e-04
 27        -1.0751305531e-04
 28        -4.5059447735e-04
 29         5.7983717473e-03
 30        -7.5453417090e-04
 31         3.0697654739e-03
 32        -5.2688684980e-04
 33        -8.5168257494e-04
 34         1.7384695457e-04
 35         1.6289944987e-03
 36         2.5409843132e-03
 37        -5.9646776490e-05
 38         8.4176330510e-04
 39         1.6403797054e-04
 40         4.6145114910e-04
 41         5.8383550297e-04
 42        -9.9919146024e-04
 43        -3.8254684164e-04
 44        -6.6902149546e-04
 45         2.1461536189e-03
 46         3.3215073961e-05
 47        -1.9323318172e-04
 48         5.4914106339e-05
 49        -6.5376416550e-04
 50         1.6246718387e-03
 51        -1.0209116994e-04
 52        -3.4874536277e-04
 53        -2.0818482265e-04
 54        -5.1389814925e-05
 55         8.8467235469e-05
 56         1.1168401869e-04
 57         4.6213694398e-05
 58         6.6222700577e-05
 59        -6.5683775511e-04
 60         1.3549863953e-04
 61         1.2664113725e-05
 62         7.3412339494e-06
 63        -1.3885331092e-04
 64        -5.8496500254e-04
 65         7.4296644912e-05
 66         3.4112787731e-05
 67        -2.1645142855e-05
 68         1.5918501850e-05
 69         3.0828785273e-05
 70         2.1957916988e-05
 71        -1.0477460878e-05
 72         7.4437687481e-04
 73        -3.9584196362e-04
 74        -2.0525692075e-04
 75        -2.8278498821e-05
 76        -9.0842893974e-05
 77         4.8765826464e-04
 78         1.7263877856e-04
 79        -1.2936115173e-04
 80         1.1397273468e-04
 81        -5.0356129533e-04
 82         6.7624194038e-04
 83         4.7502009520e-06
 84         4.6520393912e-05
 85        -7.5171646437e-05
 86        -1.3571996112e-04
 87         3.9272344409e-04
 88         7.1266760654e-05
 89        -1.2998668001e-04
 90        -2.6431664785e-05
 91         6.0629313342e-05
 92         5.4752421105e-04
 93         1.1304909545e-04
 94        -2.9646718347e-04
 95         1.4922120598e-05
 96        -2.4680559165e-03
 97         1.0967562604e-03
 98        -1.1447355978e-03
 99         1.6638938739e-03
100        -8.9658624259e-04
 Sym= A
 Ene=        -1.0188140639e+01
 Spin= Alpha
 Occup=         2.0000000000e+00
  1        -9.3107643848e-04
  2        -5.4465703629e-04
  3         1.5145751916e-03
  4         9.9648378595e-05
  5         1.3611725221e-04
  6        -1.2244784800e-04
  7        -1.3986428168e-03
  8        -3.0031744918e-04
  9         5.3395894086e-04
 10        -2.8796962284e-04
 11         7.7726893719e-05
 12        -1.5576834765e-04
 13         2.1156619725e-05
 14        -1.8549992593e-04
 15        -6.5308324262e-03
 16        -9.9434941381e-04
 17         4.3733640451e-03
 18         4.4008486318e-04
 19         8.9581901552e-04
 20        -2.0477902529e-04
 21        -1.7395150877e-03
 22        -2.8559055961e-03
 23         1.3786292954e-05
 24         8.3924855619e-04
 25         3.8238116652e-04
 26         5.4702028122e-04
 27         6.2806554187e-04
 28        -9.3792913110e-04
 29         1.0066805834e+00
 30         1.6811655635e-02
 31        -2.1269989335e-02
 32        -2.2747471689e-04
 33        -1.9139975064e-05
 34        -5.3498881615e-04
 35        -4.7547349191e-03
 36        -8.4988056250e-05
 37         1.9265881636e-03
 38        -1.1085124845e-03
 39        -7.0610995074e-05
 40        -1.8727411444e-05
 41         7.2117059165e-04
 42         1.3752813380e-04
 43        -3.3281471579e-03
 44        -1.0793538781e-03
 45         6.2226569755e-03
 46         5.3268103243e-04
 47        -8.7749392474e-04
 48        -1.6776966121e-04
 49        -5.8755772599e-04
 50         3.3996197112e-03
 51        -8.2381523200e-07
 52         7.7369072288e-04
 53         2.8505932018e-04
 54        -3.7270472427e-04
 55         6.0808801971e-04
 56         1.1058696726e-03
 57         3.0827486066e-05
 58         4.7373785341e-05
 59        -7.3964973359e-04
 60         7.6658612877e-05
 61         4.4931325460e-06
 62        -4.6150503435e-05
 63        -1.4004615530e-04
 64        -7.3742646122e-04
 65         1.2517497660e-04
 66        -8.7031618780e-05
 67         2.6998302467e-07
 68         2.2017555744e-05
 69         3.6031161464e-05
 70         1.2960645715e-04
 71        -9.6070829477e-06
 72         4.6473456835e-04
 73        -1.3616131723e-04
 74        -2.0254008478e-04
 75         1.0614408415e-05
 76         4.2289384037e-05
 77         5.0602233870e-04
 78         8.4383808511e-05
 79        -6.5595276796e-05
 80        -3.2573195402e-05
 81        -3.1496071043e-04
 82         1.8144935113e-04
 83         1.5638939027e-05
 84         1.2364857902e-04
 85        -1.3368323608e-05
 86        -1.1710188705e-04
 87         8.1498464265e-04
 88         2.7525365537e-04
 89        -9.2982647835e-05
 90         4.0403000120e-05
 91        -2.4867704515e-03
 92         1.0989036477e-03
 93        -2.2321116445e-03
 94        -7.4027323466e-05
 95        -1.8349103757e-04
 96        -1.4536944030e-04
 97         4.5725983802e-04
 98         2.8808610765e-04
 99         8.6271372895e-05
100         1.1830292097e-04
 Sym= A
 Ene=        -1.0179213607e+01
 Spin= Alpha
 Occup=         2.0000000000e+00
  1         1.0068510996e+00
  2         1.7158014615e-02
  3        -1.8894421648e-02
  4         9.2208104449e-05
  5         2.9330366202e-04
  6         5.6890855991e-04
  7         2.5307803661e-03
  8         2.5617309510e-03
  9        -4.6685102257e-04
 10        -3.9050446535e-05
 11         3.9226053114e-04
 12        -1.1562448842e-03
 13         9.4074977930e-05
 14         6.1689736489e-04
 15        -4.8009259936e-03
 16        -6.9102088259e-04
 17         2.2308889289e-03
 18        -9.5804708306e-04
 19         1.3439903235e-05
 20        -2.8571539429e-05
 21         3.1582757374e-03
 22         1.2406802080e-03
 23        -1.1218652599e-05
 24         8.4403484611e-04
 25         1.1097317131e-04
 26         1.0976366133e-04
 27        -1.4010786405e-03
 28        -2.4992866741e-04
 29         2.4458891093e-04
 30        -5.9092278319e-04
 31         2.5338724669e-03
 32        -2.0858218398e-04
 33        -4.6862551450e-05
 34        -2.2699185306e-05
 35         1.4678610035e-03
 36         1.8469684263e-03
 37        -3.6575541122e-04
 38        -3.8589042860e-04
 39         4.4554651663e-05
 40        -1.4147980689e-04
 41        -2.9588487089e-04
 42        -1.4873151667e-04
 43        -1.2731627958e-04
 44        -4.4076664294e-04
 45        -1.0939794440e-03
 46        -1.5856025021e-04
 47        -2.0098396338e-04
 48        -7.2629475514e-05
 49        -1.1208155800e-03
 50         2.1396038893e-04
 51         2.3518282776e-04
 52        -7.4925063756e-06
 53         4.1372940896e-06
 54        -5.5302931924e-05
 55        -1.3361107722e-04
 56         1.8768662511e-04
 57        -1.9214738883e-05
 58        -5.2043901432e-05
 59         6.6596629503e-05
 60         1.3262831668e-04
 61        -8.3292597525e-05
 62        -8.2174938369e-05
 63        -1.2825242175e-03
 64        -4.1529367075e-04
 65         5.4399467509e-04
 66        -2.8465719098e-05
 67         6.5503147887e-06
 68         1.2833869051e-04
 69         1.1852585434e-04
 70        -7.6879602046e-05
 71         7.8038250587e-04
 72         3.9086082639e-03
 73         8.0563254890e-05
 74        -6.8472249270e-04
 75        -1.7071310139e-04
 76        -2.1612102556e-03
 77         1.1807499824e-03
 78         8.6656986867e-04
 79         1.7596477047e-03
 80        -9.8230257063e-04
 81        -1.2337012511e-03
 82         2.1339664759e-03
 83         7.1972988481e-04
 84        -6.7074306879e-04
 85         1.8147476458e-03
 86        -4.0092135428e-05
 87         2.0488697994e-04
 88         3.5382938038e-05
 89        -1.6500528760e-05
 90        -3.7984798916e-05
 91         6.6120191855e-05
 92         5.2527830537e-04
 93        -2.2745199426e-07
 94        -1.2853830460e-04
 95         4.2705058950e-05
 96        -1.3949085820e-04
 97         3.3637213067e-04
 98        -2.2741041843e-04
 99        -2.2959783366e-04
100         3.8161527590e-05
 Sym= A
 Ene=        -1.0499563373e+00
 Spin= Alpha
 Occup=         2.0000000000e+00
  1        -2.3567237199e-04
  2         2.2203405325e-02
  3        -2.1807635748e-03
  4        -5.3010248798e-03
  5        -1.2887990848e-02
  6        -1.3595477842e-04
  7         4.5070471838e-03
  8         5.7519194058e-03
  9        -5.4337975188e-03
 10        -7.7082810479e-04
 11        -6.4195525077e-04
 12         1.2221770411e-03
 13        -4.0494852654e-04
 14        -1.7224005033e-04
 15        -1.0458563006e-03
 16         2.3679881683e-02
 17         6.7411881726e-03
 18         4.5894509135e-03
 19        -1.4260597523e-02
 20         1.0430780517e-03
 21         5.6433398154e-03
 22         2.0944293914e-03
 23         7.6905172600e-04
 24        -1.7805914440e-03
 25        -3.4343410651e-04
 26        -7.3163501016e-04
 27        -9.6318924795e-04
 28        -5.0309584620e-04
 29        -3.8240214453e-03
 30         4.2836924994e-02
 31         3.0529915070e-02
 32         2.7785771140e-02
 33        -1.8607849851e-02
 34        -6.7277028810e-03
 35         1.8629331451e-02
 36         1.5644203214e-03
 37        -4.1388842310e-03
 38        -3.6001919843e-03
 39        -2.2742951724e-03
 40         8.9553515603e-04
 41         1.7326646451e-03
 42        -8.4301895155e-03
 43        -1.3998117326e-02
 44         1.9744805491e-01
 45         7.9265580640e-02
 46         1.5727166134e-01
 47         9.2610268097e-03
 48        -2.1291188517e-02
 49         1.1445762062e-02
 50         1.3024915834e-04
 51        -7.4155758289e-04
 52        -1.3432202842e-02
 53        -8.0669149732e-03
 54        -2.1229625632e-03
 55         3.0191412070e-02
 56        -1.0485478434e-03
 57        -8.1191991588e-03
 58         4.0718960327e-01
 59         3.8454159043e-01
 60        -1.2836337305e-01
 61         3.8757997572e-02
 62         9.7154995175e-03
 63        -3.3776084339e-02
 64         1.1897860740e-02
 65         2.1728694472e-03
 66        -6.6079684245e-03
 67        -2.5408629143e-03
 68        -1.6302022117e-03
 69         8.2525766896e-03
 70        -1.6283933507e-03
 71         7.4585440854e-02
 72         4.0360038610e-03
 73        -7.7055976987e-03
 74        -1.1604546924e-02
 75         4.4573279925e-03
 76         2.4659119035e-03
 77        -5.2663106487e-03
 78        -4.1744252665e-04
 79        -7.9911089361e-04
 80         3.3313901454e-04
 81         1.0790380461e-02
 82         5.1350115256e-03
 83        -1.4268331751e-03
 84        -1.2111179395e-03
 85        -1.3678719376e-03
 86         3.7735180649e-02
 87        -1.9769105939e-03
 88         8.5085008359e-03
 89         6.4442987488e-03
 90         2.1600058699e-04
 91         6.8191391830e-03
 92         5.8500848291e-03
 93         9.9306278036e-04
 94        -1.7229734075e-03
 95        -1.1546805001e-04
 96         2.8198658252e-03
 97        -3.2478544250e-04
 98        -1.5465160430e-04
 99        -6.3990456028e-04
100        -8.5514523840e-06
 Sym= A
 Ene=        -8.1286508079e-01
 Spin= Alpha
 Occup=         2.0000000000e+00
  1         1.2129281860e-02
  2        -1.8174306707e-01
  3        -8.9122081990e-02
  4         8.2233954778e-02
  5         1.6997216092e-02
  6        -5.6847636160e-03
  7         5.1573007220e-03
  8        -4.5036140975e-03
  9         7.4050248923e-03
 10         6.6499167893e-03
 11         8.0869916686e-04
 12        -1.2599959316e-03
 13        -9.9610508182e-03
 14        -3.2066265284e-03
 15         1.9096958164e-02
 16        -2.8807537717e-01
 17        -1.9675467455e-01
 18        -2.2877234422e-02
 19         6.6761326119e-02
 20        -7.9136980748e-03
 21        -2.5559379550e-02
 22         2.7831137609e-02
 23        -9.6910059058e-03
 24         1.0634811489e-02
 25         2.2005195396e-03
 26         2.1731023921e-03
 27        -1.7777965633e-03
 28        -7.3335504569e-03
 29         1.7780231351e-02
 30        -2.4220936265e-01
 31        -1.3157747531e-01
 32        -6.3801860920e-02
 33        -4.0363086540e-02
 34         2.8550493724e-02
 35        -9.0465382455e-03
 36        -1.6609335549e-02
 37         8.1256899385e-03
 38         7.1797849902e-03
 39         3.5299836327e-03
 40         3.0804703078e-03
 41         7.8272321873e-03
 42        -7.7133600677e-03
 43         3.0331837074e-03
 44        -7.2836495167e-02
 45        -4.8487276545e-02
 46         8.9076631092e-02
 47        -8.6789538361e-02
 48        -1.2867529676e-02
 49         2.5722271472e-02
 50        -2.0872853689e-02
 51        -5.6568423786e-03
 52         2.4903545881e-03
 53        -1.3687469844e-03
 54        -1.4145642263e-03
 55         1.5669535401e-02
 56         3.9216670291e-03
 57         8.0901589216e-05
 58         1.0807556791e-01
 59         1.1090461440e-01
 60        -1.1812552984e-02
 61        -2.4214066355e-02
 62         1.4986536152e-04
 63         2.7248348977e-03
 64        -9.6304300964e-03
 65        -6.7866767454e-04
 66         2.9370632507e-04
 67        -1.3815468123e-04
 68        -5.1747840378e-04
 69         1.3939578950e-03
 70         2.2294699025e-03
 71        -3.6945315230e-02
 72         3.9422221888e-03
 73         2.9633235256e-03
 74        -9.8805958436e-03
 75        -2.7862197582e-03
 76        -5.3743141231e-02
 77         1.0991137488e-03
 78         5.7748801632e-03
 79         6.6445548729e-03
 80        -3.7742112526e-03
 81        -6.6645578516e-02
 82        -3.3279939270e-03
 83         6.0194183213e-03
 84        -1.9519158257e-03
 85         7.9988375143e-03
 86        -1.6354648617e-02
 87        -4.3413221318e-04
 88         1.2254147148e-03
 89        -3.1699486252e-03
 90        -2.3967468292e-04
 91        -7.6637525231e-02
 92        -3.8671059847e-03
 93        -1.3016896095e-02
 94        -1.9717269390e-03
 95         7.3717709173e-04
 96        -9.5068693700e-02
 97        -1.3138417663e-02
 98        -7.2842824841e-03
 99         1.1918007634e-02
100        -4.8910930473e-03
 Sym= A
 Ene=        -7.2482104235e-01
 Spin= Alpha
 Occup=         2.0000000000e+00
  1         1.3586223931e-02
  2        -2.4643352736e-01
  3        -1.2119472354e-01
  4         3.8491001574e-02
  5         5.8760736142e-03
  6        -7.1686427738e-03
  7        -6.1557489735e-03
  8        -1.4259115092e-03
  9         5.9936139502e-03
 10         3.7069960962e-03
 11         1.2970089980e-04
 12        -2.1130879054e-03
 13        -2.6617799264e-03
 14         3.0105083861e-03
 15         6.2775107848e-03
 16        -9.1881917043e-02
 17        -9.2369025907e-02
 18        -1.2901817245e-01
 19        -7.4504238989e-02
 20         1.2337995748e-02
 21        -6.5322776932e-02
 22        -8.0436263061e-03
 23        -3.3378431168e-03
 24         2.6461442516e-03
 25        -7.4846189100e-04
 26        -1.4991418680e-03
 27        -1.6942409528e-02
 28         6.3790223595e-03
 29        -1.3662330985e-02
 30         2.1818951823e-01
 31         1.4320722220e-01
 32         7.5873028001e-03
 33        -9.4525224869e-02
 34        -1.6779033770e-02
 35         2.1012800266e-02
 36        -2.9550276504e-02
 37        -1.4577565302e-03
 38        -3.2896703535e-03
 39        -5.0178075507e-04
 40         3.3287962999e-03
 41        -7.9433958204e-03
 42        -1.0404470356e-02
 43        -6.7679477065e-03
 44         2.2262541191e-01
 45         1.2661553199e-01
 46        -1.0198997325e-01
 47         5.4901105675e-02
 48         1.2916769149e-02
 49        -3.3161235644e-02
 50         1.4488029410e-02
 51         2.3351042618e-03